 Entering Gaussian System, Link 0=g16
 Initial command:
 /APL/ISV/x86_64/gaussian/16/C.01/g16/l1.exe "/scr/yagi/water.4953/Gau-4963.inp" -scrdir="/scr/yagi/water.4953/"
 Entering Link 1 = /APL/ISV/x86_64/gaussian/16/C.01/g16/l1.exe PID=      4964.
  
 Copyright (c) 1988-2019, Gaussian, Inc.  All Rights Reserved.
  
 This is part of the Gaussian(R) 16 program.  It is based on
 the Gaussian(R) 09 system (copyright 2009, Gaussian, Inc.),
 the Gaussian(R) 03 system (copyright 2003, Gaussian, Inc.),
 the Gaussian(R) 98 system (copyright 1998, Gaussian, Inc.),
 the Gaussian(R) 94 system (copyright 1995, Gaussian, Inc.),
 the Gaussian 92(TM) system (copyright 1992, Gaussian, Inc.),
 the Gaussian 90(TM) system (copyright 1990, Gaussian, Inc.),
 the Gaussian 88(TM) system (copyright 1988, Gaussian, Inc.),
 the Gaussian 86(TM) system (copyright 1986, Carnegie Mellon
 University), and the Gaussian 82(TM) system (copyright 1983,
 Carnegie Mellon University). Gaussian is a federally registered
 trademark of Gaussian, Inc.
  
 This software contains proprietary and confidential information,
 including trade secrets, belonging to Gaussian, Inc.
  
 This software is provided under written license and may be
 used, copied, transmitted, or stored only in accord with that
 written license.
  
 The following legend is applicable only to US Government
 contracts under FAR:
  
                    RESTRICTED RIGHTS LEGEND
  
 Use, reproduction and disclosure by the US Government is
 subject to restrictions as set forth in subparagraphs (a)
 and (c) of the Commercial Computer Software - Restricted
 Rights clause in FAR 52.227-19.
  
 Gaussian, Inc.
 340 Quinnipiac St., Bldg. 40, Wallingford CT 06492
  
  
 ---------------------------------------------------------------
 Warning -- This program may not be used in any manner that
 competes with the business of Gaussian, Inc. or will provide
 assistance to any competitor of Gaussian, Inc.  The licensee
 of this program is prohibited from giving any competitor of
 Gaussian, Inc. access to this program.  By using this program,
 the user acknowledges that Gaussian, Inc. is engaged in the
 business of creating and licensing software in the field of
 computational chemistry and represents and warrants to the
 licensee that it is not a competitor of Gaussian, Inc. and that
 it will not use this program in any manner prohibited above.
 ---------------------------------------------------------------
  

 Cite this work as:
 Gaussian 16, Revision C.01,
 M. J. Frisch, G. W. Trucks, H. B. Schlegel, G. E. Scuseria, 
 M. A. Robb, J. R. Cheeseman, G. Scalmani, V. Barone, 
 G. A. Petersson, H. Nakatsuji, X. Li, M. Caricato, A. V. Marenich, 
 J. Bloino, B. G. Janesko, R. Gomperts, B. Mennucci, H. P. Hratchian, 
 J. V. Ortiz, A. F. Izmaylov, J. L. Sonnenberg, D. Williams-Young, 
 F. Ding, F. Lipparini, F. Egidi, J. Goings, B. Peng, A. Petrone, 
 T. Henderson, D. Ranasinghe, V. G. Zakrzewski, J. Gao, N. Rega, 
 G. Zheng, W. Liang, M. Hada, M. Ehara, K. Toyota, R. Fukuda, 
 J. Hasegawa, M. Ishida, T. Nakajima, Y. Honda, O. Kitao, H. Nakai, 
 T. Vreven, K. Throssell, J. A. Montgomery, Jr., J. E. Peralta, 
 F. Ogliaro, M. J. Bearpark, J. J. Heyd, E. N. Brothers, K. N. Kudin, 
 V. N. Staroverov, T. A. Keith, R. Kobayashi, J. Normand, 
 K. Raghavachari, A. P. Rendell, J. C. Burant, S. S. Iyengar, 
 J. Tomasi, M. Cossi, J. M. Millam, M. Klene, C. Adamo, R. Cammi, 
 J. W. Ochterski, R. L. Martin, K. Morokuma, O. Farkas, 
 J. B. Foresman, and D. J. Fox, Gaussian, Inc., Wallingford CT, 2019.
 
 ******************************************
 Gaussian 16:  ES64L-G16RevC.01  3-Jul-2019
                 8-Jun-2021 
 ******************************************
 %NprocShared=16
 Will use up to   16 processors via shared memory.
 %chk=water.chk
 %mem=1gb
 --------------------
 #P B3LYP/cc-pVDZ opt
 --------------------
 1/18=20,19=15,26=3,38=1/1,3;
 2/9=110,12=2,17=6,18=5,40=1/2;
 3/5=16,11=2,25=1,30=1,71=1,74=-5/1,2,3;
 4//1;
 5/5=2,38=5/2;
 6/7=2,8=2,9=2,10=2,28=1/1;
 7//1,2,3,16;
 1/18=20,19=15,26=3/3(2);
 2/9=110/2;
 99//99;
 2/9=110/2;
 3/5=16,11=2,25=1,30=1,71=1,74=-5/1,2,3;
 4/5=5,16=3,69=1/1;
 5/5=2,38=5/2;
 7//1,2,3,16;
 1/18=20,19=15,26=3/3(-5);
 2/9=110/2;
 6/7=2,8=2,9=2,10=2,19=2,28=1/1;
 99/9=1/99;
 Leave Link    1 at Tue Jun  8 11:45:20 2021, MaxMem=   134217728 cpu:               0.4 elap:               0.0
 (Enter /APL/ISV/x86_64/gaussian/16/C.01/g16/l101.exe)
 -------------------
 B3LYP/cc-pVDZ water
 -------------------
 Symbolic Z-matrix:
 Charge =  0 Multiplicity = 1
 O                     0.        0.        0. 
 H                     1.5       0.        0. 
 H                     0.        1.5       0. 
 
 Add virtual bond connecting atoms H2         and O1         Dist= 2.83D+00.
 Add virtual bond connecting atoms H3         and O1         Dist= 2.83D+00.
 ITRead=  0  0  0
 MicOpt= -1 -1 -1
 NAtoms=      3 NQM=        3 NQMF=       0 NMMI=      0 NMMIF=      0
                NMic=       0 NMicF=      0.
                    Isotopes and Nuclear Properties:
 (Nuclear quadrupole moments (NQMom) in fm**2, nuclear magnetic moments (NMagM)
  in nuclear magnetons)

  Atom         1           2           3
 IAtWgt=          16           1           1
 AtmWgt=  15.9949146   1.0078250   1.0078250
 NucSpn=           0           1           1
 AtZEff=  -0.0000000  -0.0000000  -0.0000000
 NQMom=    0.0000000   0.0000000   0.0000000
 NMagM=    0.0000000   2.7928460   2.7928460
 AtZNuc=   8.0000000   1.0000000   1.0000000
 Leave Link  101 at Tue Jun  8 11:45:20 2021, MaxMem=   134217728 cpu:               1.8 elap:               0.1
 (Enter /APL/ISV/x86_64/gaussian/16/C.01/g16/l103.exe)

 GradGradGradGradGradGradGradGradGradGradGradGradGradGradGradGradGradGrad
 Berny optimization.
 Initialization pass.
                           ----------------------------
                           !    Initial Parameters    !
                           ! (Angstroms and Degrees)  !
 --------------------------                            --------------------------
 ! Name  Definition              Value          Derivative Info.                !
 --------------------------------------------------------------------------------
 ! R1    R(1,2)                  1.5            estimate D2E/DX2                !
 ! R2    R(1,3)                  1.5            estimate D2E/DX2                !
 ! A1    A(2,1,3)               90.0            estimate D2E/DX2                !
 --------------------------------------------------------------------------------
 Trust Radius=3.00D-01 FncErr=1.00D-07 GrdErr=1.00D-06 EigMax=2.50D+02 EigMin=1.00D-04
 Number of steps in this run=     20 maximum allowed number of steps=    100.
 GradGradGradGradGradGradGradGradGradGradGradGradGradGradGradGradGradGrad

 Leave Link  103 at Tue Jun  8 11:45:20 2021, MaxMem=   134217728 cpu:               0.2 elap:               0.0
 (Enter /APL/ISV/x86_64/gaussian/16/C.01/g16/l202.exe)
                          Input orientation:                          
 ---------------------------------------------------------------------
 Center     Atomic      Atomic             Coordinates (Angstroms)
 Number     Number       Type             X           Y           Z
 ---------------------------------------------------------------------
      1          8           0        0.000000    0.000000    0.000000
      2          1           0        1.500000    0.000000    0.000000
      3          1           0        0.000000    1.500000    0.000000
 ---------------------------------------------------------------------
                    Distance matrix (angstroms):
                    1          2          3
     1  O    0.000000
     2  H    1.500000   0.000000
     3  H    1.500000   2.121320   0.000000
 Stoichiometry    H2O
 Framework group  C2V[C2(O),SGV(H2)]
 Deg. of freedom     2
 Full point group                 C2V     NOp   4
 Largest Abelian subgroup         C2V     NOp   4
 Largest concise Abelian subgroup C2      NOp   2
                         Standard orientation:                         
 ---------------------------------------------------------------------
 Center     Atomic      Atomic             Coordinates (Angstroms)
 Number     Number       Type             X           Y           Z
 ---------------------------------------------------------------------
      1          8           0       -0.000000    0.000000    0.212132
      2          1           0       -0.000000    1.060660   -0.848528
      3          1           0       -0.000000   -1.060660   -0.848528
 ---------------------------------------------------------------------
 Rotational constants (GHZ):         250.9544735         222.8689353         118.0396647
 Leave Link  202 at Tue Jun  8 11:45:20 2021, MaxMem=   134217728 cpu:               0.2 elap:               0.0
 (Enter /APL/ISV/x86_64/gaussian/16/C.01/g16/l301.exe)
 Standard basis: CC-pVDZ (5D, 7F)
 Ernie: Thresh=  0.10000D-02 Tol=  0.10000D-05 Strict=F.
 Ernie:  2 primitive shells out of 32 were deleted.
 There are    12 symmetry adapted cartesian basis functions of A1  symmetry.
 There are     2 symmetry adapted cartesian basis functions of A2  symmetry.
 There are     4 symmetry adapted cartesian basis functions of B1  symmetry.
 There are     7 symmetry adapted cartesian basis functions of B2  symmetry.
 There are    11 symmetry adapted basis functions of A1  symmetry.
 There are     2 symmetry adapted basis functions of A2  symmetry.
 There are     4 symmetry adapted basis functions of B1  symmetry.
 There are     7 symmetry adapted basis functions of B2  symmetry.
    24 basis functions,    47 primitive gaussians,    25 cartesian basis functions
     5 alpha electrons        5 beta electrons
       nuclear repulsion energy         5.8940134460 Hartrees.
 IExCor=  402 DFT=T Ex+Corr=B3LYP ExCW=0 ScaHFX=  0.200000
 ScaDFX=  0.800000  0.720000  1.000000  0.810000 ScalE2=  1.000000  1.000000
 IRadAn=      5 IRanWt=     -1 IRanGd=            0 ICorTp=0 IEmpDi=  4
 NAtoms=    3 NActive=    3 NUniq=    2 SFac= 2.25D+00 NAtFMM=   60 NAOKFM=F Big=F
 Integral buffers will be    131072 words long.
 Raffenetti 2 integral format.
 Two-electron integral symmetry is turned on.
 Leave Link  301 at Tue Jun  8 11:45:20 2021, MaxMem=   134217728 cpu:               0.8 elap:               0.1
 (Enter /APL/ISV/x86_64/gaussian/16/C.01/g16/l302.exe)
 NPDir=0 NMtPBC=     1 NCelOv=     1 NCel=       1 NClECP=     1 NCelD=      1
         NCelK=      1 NCelE2=     1 NClLst=     1 CellRange=     0.0.
 One-electron integrals computed using PRISM.
 One-electron integral symmetry used in STVInt
 NBasis=    24 RedAO= T EigKep=  9.96D-02  NBF=    11     2     4     7
 NBsUse=    24 1.00D-06 EigRej= -1.00D+00 NBFU=    11     2     4     7
 Precomputing XC quadrature grid using
 IXCGrd= 4 IRadAn=           5 IRanWt=          -1 IRanGd=           0 AccXCQ= 0.00D+00.
 Generated NRdTot=       0 NPtTot=           0 NUsed=           0 NTot=          32
 NSgBfM=    25    25    25    25    25 MxSgAt=     3 MxSgA2=     3.
 Leave Link  302 at Tue Jun  8 11:45:20 2021, MaxMem=   134217728 cpu:               1.6 elap:               0.1
 (Enter /APL/ISV/x86_64/gaussian/16/C.01/g16/l303.exe)
 DipDrv:  MaxL=1.
 Leave Link  303 at Tue Jun  8 11:45:20 2021, MaxMem=   134217728 cpu:               0.3 elap:               0.0
 (Enter /APL/ISV/x86_64/gaussian/16/C.01/g16/l401.exe)
 ExpMin= 1.22D-01 ExpMax= 1.17D+04 ExpMxC= 4.01D+02 IAcc=3 IRadAn=         5 AccDes= 0.00D+00
 Harris functional with IExCor=  402 and IRadAn=       5 diagonalized for initial guess.
 HarFok:  IExCor=  402 AccDes= 0.00D+00 IRadAn=         5 IDoV= 1 UseB2=F ITyADJ=14
 ICtDFT=  3500011 ScaDFX=  1.000000  1.000000  1.000000  1.000000
 FoFCou: FMM=F IPFlag=           0 FMFlag=      100000 FMFlg1=           0
         NFxFlg=           0 DoJE=T BraDBF=F KetDBF=T FulRan=T
         wScrn=  0.000000 ICntrl=       500 IOpCl=  0 I1Cent=   200000004 NGrid=           0
         NMat0=    1 NMatS0=      1 NMatT0=    0 NMatD0=    1 NMtDS0=    0 NMtDT0=    0
 Petite list used in FoFCou.
 Harris En= -76.2791954374705    
 JPrj=0 DoOrth=F DoCkMO=F.
 Initial guess orbital symmetries:
       Occupied  (A1) (A1) (B2) (A1) (B1)
       Virtual   (A1) (B2) (A1) (B2) (B1) (A1) (B2) (A1) (A2) (A1)
                 (B1) (B2) (B2) (A1) (A2) (B1) (A1) (A1) (B2)
 The electronic state of the initial guess is 1-A1.
 Leave Link  401 at Tue Jun  8 11:45:20 2021, MaxMem=   134217728 cpu:               1.9 elap:               0.1
 (Enter /APL/ISV/x86_64/gaussian/16/C.01/g16/l502.exe)
 Keep R1 ints in memory in symmetry-blocked form, NReq=13860511.
 FoFCou: FMM=F IPFlag=           0 FMFlag=           0 FMFlg1=           0
         NFxFlg=           0 DoJE=F BraDBF=F KetDBF=F FulRan=T
         wScrn=  0.000000 ICntrl=       600 IOpCl=  0 I1Cent=           0 NGrid=           0
         NMat0=    1 NMatS0=    300 NMatT0=    0 NMatD0=    1 NMtDS0=    0 NMtDT0=    0
 Petite list used in FoFCou.
 Closed shell SCF:
 Using DIIS extrapolation, IDIIS=  1040.
 NGot=   134217728 LenX=   134201682 LenY=   134200616
 Requested convergence on RMS density matrix=1.00D-08 within 128 cycles.
 Requested convergence on MAX density matrix=1.00D-06.
 Requested convergence on             energy=1.00D-06.
 No special actions if energy rises.
 Integral accuracy reduced to 1.0D-05 until final iterations.

 Cycle   1  Pass 0  IDiag  1:
 E= -76.1215150471611    
 DIIS: error= 6.62D-02 at cycle   1 NSaved=   1.
 NSaved= 1 IEnMin= 1 EnMin= -76.1215150471611     IErMin= 1 ErrMin= 6.62D-02
 ErrMax= 6.62D-02  0.00D+00 EMaxC= 1.00D-01 BMatC= 1.12D-01 BMatP= 1.12D-01
 IDIUse=3 WtCom= 3.38D-01 WtEn= 6.62D-01
 Coeff-Com:  0.100D+01
 Coeff-En:   0.100D+01
 Coeff:      0.100D+01
 Gap=     0.013 Goal=   None    Shift=    0.000
 GapD=    0.013 DampG=0.250 DampE=0.500 DampFc=0.2500 IDamp=-1.
 Damping current iteration by 2.50D-01
 RMSDP=3.44D-02 MaxDP=2.68D-01              OVMax= 5.02D-01

 Cycle   2  Pass 0  IDiag  1:
 E= -76.1611757626158     Delta-E=       -0.039660715455 Rises=F Damp=T
 DIIS: error= 1.09D-02 at cycle   2 NSaved=   2.
 NSaved= 2 IEnMin= 2 EnMin= -76.1611757626158     IErMin= 2 ErrMin= 1.09D-02
 ErrMax= 1.09D-02  0.00D+00 EMaxC= 1.00D-01 BMatC= 2.29D-03 BMatP= 1.12D-01
 IDIUse=3 WtCom= 8.91D-01 WtEn= 1.09D-01
 Coeff-Com: -0.533D-01 0.105D+01
 Coeff-En:   0.230D+00 0.770D+00
 Coeff:     -0.225D-01 0.102D+01
 Gap=     0.145 Goal=   None    Shift=    0.000
 RMSDP=4.79D-03 MaxDP=3.40D-02 DE=-3.97D-02 OVMax= 3.77D-01

 Cycle   3  Pass 0  IDiag  1:
 E= -76.2354960571627     Delta-E=       -0.074320294547 Rises=F Damp=F
 DIIS: error= 1.15D-02 at cycle   3 NSaved=   3.
 NSaved= 3 IEnMin= 3 EnMin= -76.2354960571627     IErMin= 2 ErrMin= 1.09D-02
 ErrMax= 1.15D-02  0.00D+00 EMaxC= 1.00D-01 BMatC= 2.92D-03 BMatP= 2.29D-03
 IDIUse=2 WtCom= 0.00D+00 WtEn= 1.00D+00
 Coeff-En:   0.000D+00 0.000D+00 0.100D+01
 Coeff:      0.000D+00 0.000D+00 0.100D+01
 Gap=     0.217 Goal=   None    Shift=    0.000
 RMSDP=5.37D-03 MaxDP=4.92D-02 DE=-7.43D-02 OVMax= 8.38D-02

 Cycle   4  Pass 0  IDiag  1:
 E= -76.2140884363139     Delta-E=        0.021407620849 Rises=F Damp=F
 DIIS: error= 3.27D-02 at cycle   4 NSaved=   4.
 NSaved= 4 IEnMin= 3 EnMin= -76.2354960571627     IErMin= 2 ErrMin= 1.09D-02
 ErrMax= 3.27D-02  0.00D+00 EMaxC= 1.00D-01 BMatC= 2.68D-02 BMatP= 2.29D-03
 IDIUse=2 WtCom= 0.00D+00 WtEn= 1.00D+00
 Coeff-En:   0.000D+00 0.000D+00 0.836D+00 0.164D+00
 Coeff:      0.000D+00 0.000D+00 0.836D+00 0.164D+00
 Gap=     0.201 Goal=   None    Shift=    0.000
 RMSDP=2.67D-03 MaxDP=2.54D-02 DE= 2.14D-02 OVMax= 4.20D-02

 Cycle   5  Pass 0  IDiag  1:
 E= -76.2353139918962     Delta-E=       -0.021225555582 Rises=F Damp=F
 DIIS: error= 1.09D-02 at cycle   5 NSaved=   5.
 NSaved= 5 IEnMin= 3 EnMin= -76.2354960571627     IErMin= 2 ErrMin= 1.09D-02
 ErrMax= 1.09D-02  0.00D+00 EMaxC= 1.00D-01 BMatC= 3.05D-03 BMatP= 2.29D-03
 IDIUse=2 WtCom= 0.00D+00 WtEn= 1.00D+00
 Coeff-En:   0.000D+00 0.000D+00 0.511D+00 0.000D+00 0.489D+00
 Coeff:      0.000D+00 0.000D+00 0.511D+00 0.000D+00 0.489D+00
 Gap=     0.193 Goal=   None    Shift=    0.000
 RMSDP=1.36D-03 MaxDP=1.26D-02 DE=-2.12D-02 OVMax= 2.16D-02

 Cycle   6  Pass 0  IDiag  1:
 E= -76.2380823749680     Delta-E=       -0.002768383072 Rises=F Damp=F
 DIIS: error= 1.95D-04 at cycle   6 NSaved=   6.
 NSaved= 6 IEnMin= 6 EnMin= -76.2380823749680     IErMin= 6 ErrMin= 1.95D-04
 ErrMax= 1.95D-04  0.00D+00 EMaxC= 1.00D-01 BMatC= 5.66D-07 BMatP= 2.29D-03
 IDIUse=3 WtCom= 9.98D-01 WtEn= 1.95D-03
 Coeff-Com: -0.139D-01 0.113D-01-0.200D-01 0.541D-01-0.111D+00 0.108D+01
 Coeff-En:   0.000D+00 0.000D+00 0.000D+00 0.000D+00 0.000D+00 0.100D+01
 Coeff:     -0.139D-01 0.112D-01-0.200D-01 0.540D-01-0.111D+00 0.108D+01
 Gap=     0.194 Goal=   None    Shift=    0.000
 RMSDP=1.27D-05 MaxDP=1.50D-04 DE=-2.77D-03 OVMax= 1.22D-04

 Cycle   7  Pass 0  IDiag  1:
 E= -76.2380825678736     Delta-E=       -0.000000192906 Rises=F Damp=F
 DIIS: error= 1.08D-04 at cycle   7 NSaved=   7.
 NSaved= 7 IEnMin= 7 EnMin= -76.2380825678736     IErMin= 7 ErrMin= 1.08D-04
 ErrMax= 1.08D-04  0.00D+00 EMaxC= 1.00D-01 BMatC= 3.64D-07 BMatP= 5.66D-07
 IDIUse=3 WtCom= 9.99D-01 WtEn= 1.08D-03
 Coeff-Com: -0.258D-03-0.295D-03-0.669D-02 0.884D-02-0.423D-01 0.971D-01
 Coeff-Com:  0.944D+00
 Coeff-En:   0.000D+00 0.000D+00 0.000D+00 0.000D+00 0.000D+00 0.000D+00
 Coeff-En:   0.100D+01
 Coeff:     -0.258D-03-0.295D-03-0.668D-02 0.883D-02-0.423D-01 0.970D-01
 Coeff:      0.944D+00
 Gap=     0.194 Goal=   None    Shift=    0.000
 RMSDP=1.74D-05 MaxDP=1.59D-04 DE=-1.93D-07 OVMax= 2.91D-04

 Cycle   8  Pass 0  IDiag  1:
 E= -76.2380829307769     Delta-E=       -0.000000362903 Rises=F Damp=F
 DIIS: error= 5.49D-06 at cycle   8 NSaved=   8.
 NSaved= 8 IEnMin= 8 EnMin= -76.2380829307769     IErMin= 8 ErrMin= 5.49D-06
 ErrMax= 5.49D-06  0.00D+00 EMaxC= 1.00D-01 BMatC= 7.72D-10 BMatP= 3.64D-07
 IDIUse=1 WtCom= 1.00D+00 WtEn= 0.00D+00
 Coeff-Com:  0.287D-05 0.310D-04-0.500D-03-0.658D-04-0.418D-03 0.300D-02
 Coeff-Com:  0.496D-01 0.948D+00
 Coeff:      0.287D-05 0.310D-04-0.500D-03-0.658D-04-0.418D-03 0.300D-02
 Coeff:      0.496D-01 0.948D+00
 Gap=     0.194 Goal=   None    Shift=    0.000
 RMSDP=8.52D-07 MaxDP=7.23D-06 DE=-3.63D-07 OVMax= 1.44D-05

 Initial convergence to 1.0D-05 achieved.  Increase integral accuracy.
 Cycle   9  Pass 1  IDiag  1:
 E= -76.2380813685811     Delta-E=        0.000001562196 Rises=F Damp=F
 DIIS: error= 7.30D-07 at cycle   1 NSaved=   1.
 NSaved= 1 IEnMin= 1 EnMin= -76.2380813685811     IErMin= 1 ErrMin= 7.30D-07
 ErrMax= 7.30D-07  0.00D+00 EMaxC= 1.00D-01 BMatC= 5.62D-12 BMatP= 5.62D-12
 IDIUse=1 WtCom= 1.00D+00 WtEn= 0.00D+00
 Coeff-Com:  0.100D+01
 Coeff:      0.100D+01
 Gap=     0.194 Goal=   None    Shift=    0.000
 RMSDP=8.52D-07 MaxDP=7.23D-06 DE= 1.56D-06 OVMax= 1.60D-06

 Cycle  10  Pass 1  IDiag  1:
 E= -76.2380813685815     Delta-E=       -0.000000000000 Rises=F Damp=F
 DIIS: error= 4.59D-07 at cycle   2 NSaved=   2.
 NSaved= 2 IEnMin= 2 EnMin= -76.2380813685815     IErMin= 2 ErrMin= 4.59D-07
 ErrMax= 4.59D-07  0.00D+00 EMaxC= 1.00D-01 BMatC= 5.33D-12 BMatP= 5.62D-12
 IDIUse=1 WtCom= 1.00D+00 WtEn= 0.00D+00
 Coeff-Com:  0.491D+00 0.509D+00
 Coeff:      0.491D+00 0.509D+00
 Gap=     0.194 Goal=   None    Shift=    0.000
 RMSDP=1.21D-07 MaxDP=1.07D-06 DE=-4.83D-13 OVMax= 1.87D-06

 Cycle  11  Pass 1  IDiag  1:
 E= -76.2380813685808     Delta-E=        0.000000000001 Rises=F Damp=F
 DIIS: error= 5.00D-07 at cycle   3 NSaved=   3.
 NSaved= 3 IEnMin= 2 EnMin= -76.2380813685815     IErMin= 2 ErrMin= 4.59D-07
 ErrMax= 5.00D-07  0.00D+00 EMaxC= 1.00D-01 BMatC= 6.22D-12 BMatP= 5.33D-12
 IDIUse=1 WtCom= 1.00D+00 WtEn= 0.00D+00
 Coeff-Com:  0.720D-01 0.494D+00 0.434D+00
 Coeff:      0.720D-01 0.494D+00 0.434D+00
 Gap=     0.194 Goal=   None    Shift=    0.000
 RMSDP=6.22D-08 MaxDP=5.86D-07 DE= 7.67D-13 OVMax= 1.01D-06

 Cycle  12  Pass 1  IDiag  1:
 E= -76.2380813685864     Delta-E=       -0.000000000006 Rises=F Damp=F
 DIIS: error= 1.87D-08 at cycle   4 NSaved=   4.
 NSaved= 4 IEnMin= 4 EnMin= -76.2380813685864     IErMin= 4 ErrMin= 1.87D-08
 ErrMax= 1.87D-08  0.00D+00 EMaxC= 1.00D-01 BMatC= 1.06D-14 BMatP= 5.33D-12
 IDIUse=1 WtCom= 1.00D+00 WtEn= 0.00D+00
 Coeff-Com: -0.985D-02 0.950D-01 0.102D+00 0.812D+00
 Coeff:     -0.985D-02 0.950D-01 0.102D+00 0.812D+00
 Gap=     0.194 Goal=   None    Shift=    0.000
 RMSDP=2.35D-09 MaxDP=1.52D-08 DE=-5.63D-12 OVMax= 2.99D-08

 SCF Done:  E(RB3LYP) =  -76.2380813686     A.U. after   12 cycles
            NFock= 12  Conv=0.24D-08     -V/T= 2.0130
 KE= 7.526112788633D+01 PE=-1.920494760617D+02 EE= 3.465625336074D+01
 Leave Link  502 at Tue Jun  8 11:45:20 2021, MaxMem=   134217728 cpu:               2.5 elap:               0.2
 (Enter /APL/ISV/x86_64/gaussian/16/C.01/g16/l601.exe)
 Copying SCF densities to generalized density rwf, IOpCl= 0 IROHF=0.

 **********************************************************************

            Population analysis using the SCF Density.

 **********************************************************************

 Orbital symmetries:
       Occupied  (A1) (A1) (B2) (A1) (B1)
       Virtual   (A1) (B2) (A1) (B2) (B1) (A1) (B2) (A1) (A2) (A1)
                 (B1) (B2) (B2) (A1) (A2) (B1) (A1) (A1) (B2)
 The electronic state is 1-A1.
 Alpha  occ. eigenvalues --  -19.19733  -0.89141  -0.37340  -0.36205  -0.28359
 Alpha virt. eigenvalues --   -0.08998  -0.05662   0.43445   0.43783   0.87195
 Alpha virt. eigenvalues --    0.94513   0.99408   1.18194   1.23277   1.26692
 Alpha virt. eigenvalues --    1.35291   1.37837   1.43780   1.89922   2.63788
 Alpha virt. eigenvalues --    2.64082   2.64286   2.91001   3.03162
          Condensed to atoms (all electrons):
               1          2          3
     1  O    7.983313   0.193741   0.193741
     2  H    0.193741   0.633825  -0.012963
     3  H    0.193741  -0.012963   0.633825
 Mulliken charges:
               1
     1  O   -0.370795
     2  H    0.185397
     3  H    0.185397
 Sum of Mulliken charges =  -0.00000
 Mulliken charges with hydrogens summed into heavy atoms:
               1
     1  O   -0.000000
 Electronic spatial extent (au):  <R**2>=             27.6900
 Charge=             -0.0000 electrons
 Dipole moment (field-independent basis, Debye):
    X=             -0.0000    Y=              0.0000    Z=             -2.0639  Tot=              2.0639
 Quadrupole moment (field-independent basis, Debye-Ang):
   XX=             -7.9564   YY=             -4.5036   ZZ=             -5.3310
   XY=              0.0000   XZ=              0.0000   YZ=              0.0000
 Traceless Quadrupole moment (field-independent basis, Debye-Ang):
   XX=             -2.0261   YY=              1.4267   ZZ=              0.5994
   XY=              0.0000   XZ=              0.0000   YZ=              0.0000
 Octapole moment (field-independent basis, Debye-Ang**2):
  XXX=              0.0000  YYY=              0.0000  ZZZ=             -0.3820  XYY=             -0.0000
  XXY=              0.0000  XXZ=              0.3612  XZZ=             -0.0000  YZZ=              0.0000
  YYZ=             -2.2528  XYZ=             -0.0000
 Hexadecapole moment (field-independent basis, Debye-Ang**3):
 XXXX=             -6.2980 YYYY=            -13.6489 ZZZZ=            -12.3121 XXXY=             -0.0000
 XXXZ=             -0.0000 YYYX=             -0.0000 YYYZ=             -0.0000 ZZZX=             -0.0000
 ZZZY=              0.0000 XXYY=             -4.0260 XXZZ=             -3.4593 YYZZ=             -2.5242
 XXYZ=              0.0000 YYXZ=              0.0000 ZZXY=              0.0000
 N-N= 5.894013446007D+00 E-N=-1.920494763457D+02  KE= 7.526112788633D+01
 Symmetry A1   KE= 6.740149128345D+01
 Symmetry A2   KE= 1.402984122334D-35
 Symmetry B1   KE= 4.818245316019D+00
 Symmetry B2   KE= 3.041391286859D+00
 No NMR shielding tensors so no spin-rotation constants.
 Leave Link  601 at Tue Jun  8 11:45:20 2021, MaxMem=   134217728 cpu:               1.2 elap:               0.1
 (Enter /APL/ISV/x86_64/gaussian/16/C.01/g16/l701.exe)
 ... and contract with generalized density number  0.
 Compute integral first derivatives.
 Leave Link  701 at Tue Jun  8 11:45:21 2021, MaxMem=   134217728 cpu:               1.5 elap:               0.1
 (Enter /APL/ISV/x86_64/gaussian/16/C.01/g16/l702.exe)
 L702 exits ... SP integral derivatives will be done elsewhere.
 Leave Link  702 at Tue Jun  8 11:45:21 2021, MaxMem=   134217728 cpu:               0.3 elap:               0.0
 (Enter /APL/ISV/x86_64/gaussian/16/C.01/g16/l703.exe)
 Integral derivatives from FoFJK, PRISM(SPDF).
 Compute integral first derivatives, UseDBF=F ICtDFT=           0.
 Calling FoFJK, ICntrl=      2127 FMM=F ISym2X=1 I1Cent= 0 IOpClX= 0 NMat=1 NMatS=1 NMatT=0.
 FoFJK:  IHMeth= 1 ICntrl=    2127 DoSepK=F KAlg= 0 I1Cent=           0 FoldK=F
 IRaf=         0 NMat=       1 IRICut=       1 DoRegI=T DoRafI=F ISym2E= 1 IDoP0=0 IntGTp=1.
 FoFCou: FMM=F IPFlag=           0 FMFlag=      100000 FMFlg1=         800
         NFxFlg=           0 DoJE=F BraDBF=F KetDBF=F FulRan=T
         wScrn=  0.000000 ICntrl=      2127 IOpCl=  0 I1Cent=           0 NGrid=           0
         NMat0=    1 NMatS0=      1 NMatT0=    0 NMatD0=    1 NMtDS0=    0 NMtDT0=    0
 Petite list used in FoFCou.
 Leave Link  703 at Tue Jun  8 11:45:21 2021, MaxMem=   134217728 cpu:               2.1 elap:               0.2
 (Enter /APL/ISV/x86_64/gaussian/16/C.01/g16/l716.exe)
 Dipole        =-4.92350881D-17 0.00000000D+00-8.11996298D-01
 ***** Axes restored to original set *****
 -------------------------------------------------------------------
 Center     Atomic                   Forces (Hartrees/Bohr)
 Number     Number              X              Y              Z
 -------------------------------------------------------------------
      1        8           0.107050951    0.107050951    0.000000000
      2        1          -0.106429067   -0.000621884   -0.000000000
      3        1          -0.000621884   -0.106429067   -0.000000000
 -------------------------------------------------------------------
 Cartesian Forces:  Max     0.107050951 RMS     0.071160912
 Leave Link  716 at Tue Jun  8 11:45:21 2021, MaxMem=   134217728 cpu:               0.4 elap:               0.1
 (Enter /APL/ISV/x86_64/gaussian/16/C.01/g16/l103.exe)

 GradGradGradGradGradGradGradGradGradGradGradGradGradGradGradGradGradGrad
 Berny optimization.
 FormGI is forming the generalized inverse of G from B-inverse, IUseBI=4.
 Internal  Forces:  Max     0.106429067 RMS     0.086904929
 Search for a local minimum.
 Step number   1 out of a maximum of   20
 All quantities printed in internal units (Hartrees-Bohrs-Radians)
 RMS Force = .86905D-01 SwitMx=.10000D-02 MixMth= 1
 Mixed Optimization -- RFO/linear search
 Second derivative matrix not updated -- first step.
 The second derivative matrix:
                          R1        R2        A1
           R1           0.11333
           R2           0.00000   0.11333
           A1           0.00000   0.00000   0.16000
 ITU=  0
     Eigenvalues ---    0.11333   0.11333   0.16000
 RFO step:  Lambda=-1.04170488D-01 EMin= 1.13327293D-01
 Linear search not attempted -- first point.
 Maximum step size (   0.300) exceeded in Quadratic search.
    -- Step size scaled by   0.433
 Iteration  1 RMS(Cart)=  0.13198798 RMS(Int)=  0.00990113
 Iteration  2 RMS(Cart)=  0.00818791 RMS(Int)=  0.00000059
 Iteration  3 RMS(Cart)=  0.00000088 RMS(Int)=  0.00000000
 ITry= 1 IFail=0 DXMaxC= 1.40D-01 DCOld= 1.00D+10 DXMaxT= 3.00D-01 DXLimC= 3.00D+00 Rises=F
 ClnCor:  largest displacement from symmetrization is 5.17D-16 for atom     3.
 Variable       Old X    -DE/DX   Delta X   Delta X   Delta X     New X
                                 (Linear)    (Quad)   (Total)
    R1        2.83459  -0.10643   0.00000  -0.21212  -0.21212   2.62247
    R2        2.83459  -0.10643   0.00000  -0.21212  -0.21212   2.62247
    A1        1.57080   0.00176   0.00000   0.00289   0.00289   1.57369
         Item               Value     Threshold  Converged?
 Maximum Force            0.106429     0.000450     NO 
 RMS     Force            0.086905     0.000300     NO 
 Maximum Displacement     0.140152     0.001800     NO 
 RMS     Displacement     0.140169     0.001200     NO 
 Predicted change in Energy=-4.005711D-02
 Lowest energy point so far.  Saving SCF results.
 GradGradGradGradGradGradGradGradGradGradGradGradGradGradGradGradGradGrad

 Leave Link  103 at Tue Jun  8 11:45:21 2021, MaxMem=   134217728 cpu:               0.2 elap:               0.0
 (Enter /APL/ISV/x86_64/gaussian/16/C.01/g16/l202.exe)
                          Input orientation:                          
 ---------------------------------------------------------------------
 Center     Atomic      Atomic             Coordinates (Angstroms)
 Number     Number       Type             X           Y           Z
 ---------------------------------------------------------------------
      1          8           0        0.038086    0.038086   -0.000000
      2          1           0        1.425835    0.036079   -0.000000
      3          1           0        0.036079    1.425835    0.000000
 ---------------------------------------------------------------------
                    Distance matrix (angstroms):
                    1          2          3
     1  O    0.000000
     2  H    1.387750   0.000000
     3  H    1.387750   1.965411   0.000000
 Stoichiometry    H2O
 Framework group  C2V[C2(O),SGV(H2)]
 Deg. of freedom     2
 Full point group                 C2V     NOp   4
 RotChk:  IX=0 Diff= 6.57D-16
 Largest Abelian subgroup         C2V     NOp   4
 Largest concise Abelian subgroup C2      NOp   2
                         Standard orientation:                         
 ---------------------------------------------------------------------
 Center     Atomic      Atomic             Coordinates (Angstroms)
 Number     Number       Type             X           Y           Z
 ---------------------------------------------------------------------
      1          8           0        0.000000    0.000000    0.195973
      2          1           0        0.000000    0.982706   -0.783894
      3          1           0       -0.000000   -0.982706   -0.783894
 ---------------------------------------------------------------------
 Rotational constants (GHZ):         294.0445984         259.6302406         137.8839428
 Leave Link  202 at Tue Jun  8 11:45:21 2021, MaxMem=   134217728 cpu:               0.2 elap:               0.0
 (Enter /APL/ISV/x86_64/gaussian/16/C.01/g16/l301.exe)
 Standard basis: CC-pVDZ (5D, 7F)
 Ernie: Thresh=  0.10000D-02 Tol=  0.10000D-05 Strict=F.
 Ernie:  2 primitive shells out of 32 were deleted.
 There are    12 symmetry adapted cartesian basis functions of A1  symmetry.
 There are     2 symmetry adapted cartesian basis functions of A2  symmetry.
 There are     4 symmetry adapted cartesian basis functions of B1  symmetry.
 There are     7 symmetry adapted cartesian basis functions of B2  symmetry.
 There are    11 symmetry adapted basis functions of A1  symmetry.
 There are     2 symmetry adapted basis functions of A2  symmetry.
 There are     4 symmetry adapted basis functions of B1  symmetry.
 There are     7 symmetry adapted basis functions of B2  symmetry.
    24 basis functions,    47 primitive gaussians,    25 cartesian basis functions
     5 alpha electrons        5 beta electrons
       nuclear repulsion energy         6.3703704192 Hartrees.
 IExCor=  402 DFT=T Ex+Corr=B3LYP ExCW=0 ScaHFX=  0.200000
 ScaDFX=  0.800000  0.720000  1.000000  0.810000 ScalE2=  1.000000  1.000000
 IRadAn=      5 IRanWt=     -1 IRanGd=            0 ICorTp=0 IEmpDi=  4
 NAtoms=    3 NActive=    3 NUniq=    2 SFac= 2.25D+00 NAtFMM=   60 NAOKFM=F Big=F
 Integral buffers will be    131072 words long.
 Raffenetti 2 integral format.
 Two-electron integral symmetry is turned on.
 Leave Link  301 at Tue Jun  8 11:45:21 2021, MaxMem=   134217728 cpu:               0.9 elap:               0.1
 (Enter /APL/ISV/x86_64/gaussian/16/C.01/g16/l302.exe)
 NPDir=0 NMtPBC=     1 NCelOv=     1 NCel=       1 NClECP=     1 NCelD=      1
         NCelK=      1 NCelE2=     1 NClLst=     1 CellRange=     0.0.
 One-electron integrals computed using PRISM.
 One-electron integral symmetry used in STVInt
 NBasis=    24 RedAO= T EigKep=  8.14D-02  NBF=    11     2     4     7
 NBsUse=    24 1.00D-06 EigRej= -1.00D+00 NBFU=    11     2     4     7
 Precomputing XC quadrature grid using
 IXCGrd= 4 IRadAn=           5 IRanWt=          -1 IRanGd=           0 AccXCQ= 0.00D+00.
 Generated NRdTot=       0 NPtTot=           0 NUsed=           0 NTot=          32
 NSgBfM=    25    25    25    25    25 MxSgAt=     3 MxSgA2=     3.
 Leave Link  302 at Tue Jun  8 11:45:21 2021, MaxMem=   134217728 cpu:               1.7 elap:               0.1
 (Enter /APL/ISV/x86_64/gaussian/16/C.01/g16/l303.exe)
 DipDrv:  MaxL=1.
 Leave Link  303 at Tue Jun  8 11:45:21 2021, MaxMem=   134217728 cpu:               0.3 elap:               0.0
 (Enter /APL/ISV/x86_64/gaussian/16/C.01/g16/l401.exe)
 Initial guess from the checkpoint file:  "water.chk"
 B after Tr=     0.000000    0.000000    0.000000
         Rot=    1.000000   -0.000000   -0.000000    0.000000 Ang=   0.00 deg.
 Guess basis will be translated and rotated to current coordinates.
 JPrj=2 DoOrth=T DoCkMO=T.
 Initial guess orbital symmetries:
       Occupied  (A1) (A1) (B2) (A1) (B1)
       Virtual   (A1) (B2) (A1) (B2) (B1) (A1) (B2) (A1) (A2) (A1)
                 (B1) (B2) (B2) (A1) (A2) (B1) (A1) (A1) (B2)
 The electronic state of the initial guess is 1-A1.
 Generating alternative initial guess.
 ExpMin= 1.22D-01 ExpMax= 1.17D+04 ExpMxC= 4.01D+02 IAcc=3 IRadAn=         5 AccDes= 0.00D+00
 Harris functional with IExCor=  402 and IRadAn=       5 diagonalized for initial guess.
 HarFok:  IExCor=  402 AccDes= 0.00D+00 IRadAn=         5 IDoV= 1 UseB2=F ITyADJ=14
 ICtDFT=  3500011 ScaDFX=  1.000000  1.000000  1.000000  1.000000
 FoFCou: FMM=F IPFlag=           0 FMFlag=      100000 FMFlg1=           0
         NFxFlg=           0 DoJE=T BraDBF=F KetDBF=T FulRan=T
         wScrn=  0.000000 ICntrl=       500 IOpCl=  0 I1Cent=   200000004 NGrid=           0
         NMat0=    1 NMatS0=      1 NMatT0=    0 NMatD0=    1 NMtDS0=    0 NMtDT0=    0
 Petite list used in FoFCou.
 Harris En= -76.3207409160518    
 Leave Link  401 at Tue Jun  8 11:45:21 2021, MaxMem=   134217728 cpu:               2.8 elap:               0.2
 (Enter /APL/ISV/x86_64/gaussian/16/C.01/g16/l502.exe)
 Keep R1 ints in memory in symmetry-blocked form, NReq=13860511.
 FoFCou: FMM=F IPFlag=           0 FMFlag=           0 FMFlg1=           0
         NFxFlg=           0 DoJE=F BraDBF=F KetDBF=F FulRan=T
         wScrn=  0.000000 ICntrl=       600 IOpCl=  0 I1Cent=           0 NGrid=           0
         NMat0=    1 NMatS0=    300 NMatT0=    0 NMatD0=    1 NMtDS0=    0 NMtDT0=    0
 Petite list used in FoFCou.
 Closed shell SCF:
 Using DIIS extrapolation, IDIIS=  1040.
 NGot=   134217728 LenX=   134201682 LenY=   134200616
 Requested convergence on RMS density matrix=1.00D-08 within 128 cycles.
 Requested convergence on MAX density matrix=1.00D-06.
 Requested convergence on             energy=1.00D-06.
 No special actions if energy rises.
 Integral accuracy reduced to 1.0D-05 until final iterations.

 Cycle   1  Pass 0  IDiag  1:
 E= -76.2823696362918    
 DIIS: error= 8.48D-03 at cycle   1 NSaved=   1.
 NSaved= 1 IEnMin= 1 EnMin= -76.2823696362918     IErMin= 1 ErrMin= 8.48D-03
 ErrMax= 8.48D-03  0.00D+00 EMaxC= 1.00D-01 BMatC= 1.40D-03 BMatP= 1.40D-03
 IDIUse=3 WtCom= 9.15D-01 WtEn= 8.48D-02
 Coeff-Com:  0.100D+01
 Coeff-En:   0.100D+01
 Coeff:      0.100D+01
 Gap=     0.243 Goal=   None    Shift=    0.000
 GapD=    0.243 DampG=1.000 DampE=1.000 DampFc=1.0000 IDamp=-1.
 RMSDP=2.52D-03 MaxDP=2.20D-02              OVMax= 4.15D-02

 Cycle   2  Pass 0  IDiag  1:
 E= -76.2826313750488     Delta-E=       -0.000261738757 Rises=F Damp=F
 DIIS: error= 9.28D-03 at cycle   2 NSaved=   2.
 NSaved= 2 IEnMin= 2 EnMin= -76.2826313750488     IErMin= 1 ErrMin= 8.48D-03
 ErrMax= 9.28D-03  0.00D+00 EMaxC= 1.00D-01 BMatC= 2.08D-03 BMatP= 1.40D-03
 IDIUse=3 WtCom= 9.41D-02 WtEn= 9.06D-01
 Coeff-Com:  0.573D+00 0.427D+00
 Coeff-En:   0.444D+00 0.556D+00
 Coeff:      0.456D+00 0.544D+00
 Gap=     0.212 Goal=   None    Shift=    0.000
 RMSDP=2.18D-03 MaxDP=1.93D-02 DE=-2.62D-04 OVMax= 3.16D-02

 Cycle   3  Pass 0  IDiag  1:
 E= -76.2827457629884     Delta-E=       -0.000114387940 Rises=F Damp=F
 DIIS: error= 8.23D-03 at cycle   3 NSaved=   3.
 NSaved= 3 IEnMin= 3 EnMin= -76.2827457629884     IErMin= 3 ErrMin= 8.23D-03
 ErrMax= 8.23D-03  0.00D+00 EMaxC= 1.00D-01 BMatC= 1.86D-03 BMatP= 1.40D-03
 IDIUse=3 WtCom= 9.93D-02 WtEn= 9.01D-01
 Coeff-Com:  0.429D-02 0.484D+00 0.511D+00
 Coeff-En:   0.000D+00 0.488D+00 0.512D+00
 Coeff:      0.426D-03 0.488D+00 0.512D+00
 Gap=     0.220 Goal=   None    Shift=    0.000
 RMSDP=1.14D-03 MaxDP=1.08D-02 DE=-1.14D-04 OVMax= 1.80D-02

 Cycle   4  Pass 0  IDiag  1:
 E= -76.2843837491489     Delta-E=       -0.001637986161 Rises=F Damp=F
 DIIS: error= 4.79D-04 at cycle   4 NSaved=   4.
 NSaved= 4 IEnMin= 4 EnMin= -76.2843837491489     IErMin= 4 ErrMin= 4.79D-04
 ErrMax= 4.79D-04  0.00D+00 EMaxC= 1.00D-01 BMatC= 3.12D-06 BMatP= 1.40D-03
 IDIUse=3 WtCom= 9.95D-01 WtEn= 4.79D-03
 Coeff-Com: -0.123D-01 0.124D+00 0.154D+00 0.734D+00
 Coeff-En:   0.000D+00 0.000D+00 0.000D+00 0.100D+01
 Coeff:     -0.122D-01 0.123D+00 0.154D+00 0.735D+00
 Gap=     0.220 Goal=   None    Shift=    0.000
 RMSDP=5.13D-05 MaxDP=3.62D-04 DE=-1.64D-03 OVMax= 8.75D-04

 Cycle   5  Pass 0  IDiag  1:
 E= -76.2843866395947     Delta-E=       -0.000002890446 Rises=F Damp=F
 DIIS: error= 1.41D-05 at cycle   5 NSaved=   5.
 NSaved= 5 IEnMin= 5 EnMin= -76.2843866395947     IErMin= 5 ErrMin= 1.41D-05
 ErrMax= 1.41D-05  0.00D+00 EMaxC= 1.00D-01 BMatC= 5.74D-09 BMatP= 3.12D-06
 IDIUse=1 WtCom= 1.00D+00 WtEn= 0.00D+00
 Coeff-Com:  0.534D-03-0.134D-01-0.160D-01-0.599D-01 0.109D+01
 Coeff:      0.534D-03-0.134D-01-0.160D-01-0.599D-01 0.109D+01
 Gap=     0.220 Goal=   None    Shift=    0.000
 RMSDP=8.60D-06 MaxDP=7.92D-05 DE=-2.89D-06 OVMax= 1.31D-04

 Initial convergence to 1.0D-05 achieved.  Increase integral accuracy.
 Cycle   6  Pass 1  IDiag  1:
 E= -76.2843837106136     Delta-E=        0.000002928981 Rises=F Damp=F
 DIIS: error= 3.72D-06 at cycle   1 NSaved=   1.
 NSaved= 1 IEnMin= 1 EnMin= -76.2843837106136     IErMin= 1 ErrMin= 3.72D-06
 ErrMax= 3.72D-06  0.00D+00 EMaxC= 1.00D-01 BMatC= 3.41D-10 BMatP= 3.41D-10
 IDIUse=1 WtCom= 1.00D+00 WtEn= 0.00D+00
 Coeff-Com:  0.100D+01
 Coeff:      0.100D+01
 Gap=     0.220 Goal=   None    Shift=    0.000
 RMSDP=8.60D-06 MaxDP=7.92D-05 DE= 2.93D-06 OVMax= 4.06D-05

 Cycle   7  Pass 1  IDiag  1:
 E= -76.2843837093332     Delta-E=        0.000000001280 Rises=F Damp=F
 DIIS: error= 8.95D-06 at cycle   2 NSaved=   2.
 NSaved= 2 IEnMin= 1 EnMin= -76.2843837106136     IErMin= 1 ErrMin= 3.72D-06
 ErrMax= 8.95D-06  0.00D+00 EMaxC= 1.00D-01 BMatC= 2.20D-09 BMatP= 3.41D-10
 IDIUse=1 WtCom= 1.00D+00 WtEn= 0.00D+00
 Coeff-Com:  0.734D+00 0.266D+00
 Coeff:      0.734D+00 0.266D+00
 Gap=     0.220 Goal=   None    Shift=    0.000
 RMSDP=1.14D-06 MaxDP=1.03D-05 DE= 1.28D-09 OVMax= 1.70D-05

 Cycle   8  Pass 1  IDiag  1:
 E= -76.2843837112843     Delta-E=       -0.000000001951 Rises=F Damp=F
 DIIS: error= 6.62D-07 at cycle   3 NSaved=   3.
 NSaved= 3 IEnMin= 3 EnMin= -76.2843837112843     IErMin= 3 ErrMin= 6.62D-07
 ErrMax= 6.62D-07  0.00D+00 EMaxC= 1.00D-01 BMatC= 4.60D-12 BMatP= 3.41D-10
 IDIUse=1 WtCom= 1.00D+00 WtEn= 0.00D+00
 Coeff-Com: -0.632D-01-0.538D-01 0.112D+01
 Coeff:     -0.632D-01-0.538D-01 0.112D+01
 Gap=     0.220 Goal=   None    Shift=    0.000
 RMSDP=1.82D-07 MaxDP=1.90D-06 DE=-1.95D-09 OVMax= 3.70D-06

 Cycle   9  Pass 1  IDiag  1:
 E= -76.2843837112955     Delta-E=       -0.000000000011 Rises=F Damp=F
 DIIS: error= 2.34D-07 at cycle   4 NSaved=   4.
 NSaved= 4 IEnMin= 4 EnMin= -76.2843837112955     IErMin= 4 ErrMin= 2.34D-07
 ErrMax= 2.34D-07  0.00D+00 EMaxC= 1.00D-01 BMatC= 1.45D-12 BMatP= 4.60D-12
 IDIUse=1 WtCom= 1.00D+00 WtEn= 0.00D+00
 Coeff-Com: -0.326D-01 0.864D-02 0.104D+00 0.920D+00
 Coeff:     -0.326D-01 0.864D-02 0.104D+00 0.920D+00
 Gap=     0.220 Goal=   None    Shift=    0.000
 RMSDP=4.51D-08 MaxDP=4.96D-07 DE=-1.12D-11 OVMax= 9.41D-07

 Cycle  10  Pass 1  IDiag  1:
 E= -76.2843837112971     Delta-E=       -0.000000000002 Rises=F Damp=F
 DIIS: error= 1.77D-08 at cycle   5 NSaved=   5.
 NSaved= 5 IEnMin= 5 EnMin= -76.2843837112971     IErMin= 5 ErrMin= 1.77D-08
 ErrMax= 1.77D-08  0.00D+00 EMaxC= 1.00D-01 BMatC= 8.07D-15 BMatP= 1.45D-12
 IDIUse=1 WtCom= 1.00D+00 WtEn= 0.00D+00
 Coeff-Com: -0.837D-02 0.348D-02 0.745D-02 0.242D+00 0.756D+00
 Coeff:     -0.837D-02 0.348D-02 0.745D-02 0.242D+00 0.756D+00
 Gap=     0.220 Goal=   None    Shift=    0.000
 RMSDP=2.24D-09 MaxDP=2.23D-08 DE=-1.65D-12 OVMax= 4.02D-08

 SCF Done:  E(RB3LYP) =  -76.2843837113     A.U. after   10 cycles
            NFock= 10  Conv=0.22D-08     -V/T= 2.0126
 KE= 7.533538575828D+01 PE=-1.931074868674D+02 EE= 3.511734697866D+01
 Leave Link  502 at Tue Jun  8 11:45:22 2021, MaxMem=   134217728 cpu:               2.4 elap:               0.2
 (Enter /APL/ISV/x86_64/gaussian/16/C.01/g16/l701.exe)
 ... and contract with generalized density number  0.
 Compute integral first derivatives.
 Leave Link  701 at Tue Jun  8 11:45:22 2021, MaxMem=   134217728 cpu:               1.4 elap:               0.1
 (Enter /APL/ISV/x86_64/gaussian/16/C.01/g16/l702.exe)
 L702 exits ... SP integral derivatives will be done elsewhere.
 Leave Link  702 at Tue Jun  8 11:45:22 2021, MaxMem=   134217728 cpu:               0.3 elap:               0.0
 (Enter /APL/ISV/x86_64/gaussian/16/C.01/g16/l703.exe)
 Integral derivatives from FoFJK, PRISM(SPDF).
 Compute integral first derivatives, UseDBF=F ICtDFT=           0.
 Calling FoFJK, ICntrl=      2127 FMM=F ISym2X=1 I1Cent= 0 IOpClX= 0 NMat=1 NMatS=1 NMatT=0.
 FoFJK:  IHMeth= 1 ICntrl=    2127 DoSepK=F KAlg= 0 I1Cent=           0 FoldK=F
 IRaf=         0 NMat=       1 IRICut=       1 DoRegI=T DoRafI=F ISym2E= 1 IDoP0=0 IntGTp=1.
 FoFCou: FMM=F IPFlag=           0 FMFlag=      100000 FMFlg1=         800
         NFxFlg=           0 DoJE=F BraDBF=F KetDBF=F FulRan=T
         wScrn=  0.000000 ICntrl=      2127 IOpCl=  0 I1Cent=           0 NGrid=           0
         NMat0=    1 NMatS0=      1 NMatT0=    0 NMatD0=    1 NMtDS0=    0 NMtDT0=    0
 Petite list used in FoFCou.
 Leave Link  703 at Tue Jun  8 11:45:22 2021, MaxMem=   134217728 cpu:               2.0 elap:               0.2
 (Enter /APL/ISV/x86_64/gaussian/16/C.01/g16/l716.exe)
 Dipole        =-4.68184908D-17 0.00000000D+00-8.24565479D-01
 ***** Axes restored to original set *****
 -------------------------------------------------------------------
 Center     Atomic                   Forces (Hartrees/Bohr)
 Number     Number              X              Y              Z
 -------------------------------------------------------------------
      1        8           0.112518670    0.112518670    0.000000000
      2        1          -0.111130762   -0.001387907   -0.000000000
      3        1          -0.001387907   -0.111130762   -0.000000000
 -------------------------------------------------------------------
 Cartesian Forces:  Max     0.112518670 RMS     0.074554117
 Leave Link  716 at Tue Jun  8 11:45:22 2021, MaxMem=   134217728 cpu:               0.4 elap:               0.0
 (Enter /APL/ISV/x86_64/gaussian/16/C.01/g16/l103.exe)

 GradGradGradGradGradGradGradGradGradGradGradGradGradGradGradGradGradGrad
 Berny optimization.
 Using GEDIIS/GDIIS optimizer.
 FormGI is forming the generalized inverse of G from B-inverse, IUseBI=4.
 Internal  Forces:  Max     0.111128639 RMS     0.090766445
 Search for a local minimum.
 Step number   2 out of a maximum of   20
 All quantities printed in internal units (Hartrees-Bohrs-Radians)
 RMS Force = .90766D-01 SwitMx=.10000D-02 MixMth= 1
 Mixed Optimization -- RFO/linear search
 Update second derivatives using D2CorX and points    1    2
 DE= -4.63D-02 DEPred=-4.01D-02 R= 1.16D+00
 TightC=F SS=  1.41D+00  RLast= 3.00D-01 DXNew= 5.0454D-01 9.0000D-01
 Trust test= 1.16D+00 RLast= 3.00D-01 DXMaxT set to 5.05D-01
 The second derivative matrix:
                          R1        R2        A1
           R1           0.04563
           R2          -0.06770   0.04563
           A1           0.00649   0.00649   0.15734
 ITU=  1  0
 Use linear search instead of GDIIS.
     Eigenvalues ---   -0.02253   0.11333   0.15781
 Eigenvalue     1 is  -2.25D-02 should be greater than     0.000000 Eigenvector:
                          R2        R1        A1
   1                    0.70619   0.70619  -0.05096
 RFO step:  Lambda=-1.68855437D-01 EMin=-2.25349275D-02
 Skip linear search -- no minimum in search direction.
 Maximum step size (   0.505) exceeded in Quadratic search.
    -- Step size scaled by   0.505
 Iteration  1 RMS(Cart)=  0.12574178 RMS(Int)=  0.12789044
 Iteration  2 RMS(Cart)=  0.10570253 RMS(Int)=  0.00006459
 Iteration  3 RMS(Cart)=  0.00008374 RMS(Int)=  0.00000000
 Iteration  4 RMS(Cart)=  0.00000000 RMS(Int)=  0.00000000
 ITry= 1 IFail=0 DXMaxC= 2.31D-01 DCOld= 1.00D+10 DXMaxT= 5.05D-01 DXLimC= 3.00D+00 Rises=F
 ClnCor:  largest displacement from symmetrization is 2.26D-14 for atom     3.
 Variable       Old X    -DE/DX   Delta X   Delta X   Delta X     New X
                                 (Linear)    (Quad)   (Total)
    R1        2.62247  -0.11113   0.00000  -0.35649  -0.35649   2.26597
    R2        2.62247  -0.11113   0.00000  -0.35649  -0.35649   2.26597
    A1        1.57369   0.00406   0.00000   0.01961   0.01961   1.59330
         Item               Value     Threshold  Converged?
 Maximum Force            0.111129     0.000450     NO 
 RMS     Force            0.090766     0.000300     NO 
 Maximum Displacement     0.230520     0.001800     NO 
 RMS     Displacement     0.230861     0.001200     NO 
 Predicted change in Energy=-8.217757D-02
 Lowest energy point so far.  Saving SCF results.
 GradGradGradGradGradGradGradGradGradGradGradGradGradGradGradGradGradGrad

 Leave Link  103 at Tue Jun  8 11:45:22 2021, MaxMem=   134217728 cpu:               0.1 elap:               0.0
 (Enter /APL/ISV/x86_64/gaussian/16/C.01/g16/l202.exe)
                          Input orientation:                          
 ---------------------------------------------------------------------
 Center     Atomic      Atomic             Coordinates (Angstroms)
 Number     Number       Type             X           Y           Z
 ---------------------------------------------------------------------
      1          8           0        0.104822    0.104822    0.000000
      2          1           0        1.303849    0.091329   -0.000000
      3          1           0        0.091329    1.303849    0.000000
 ---------------------------------------------------------------------
                    Distance matrix (angstroms):
                    1          2          3
     1  O    0.000000
     2  H    1.199102   0.000000
     3  H    1.199102   1.714762   0.000000
 Stoichiometry    H2O
 Framework group  C2V[C2(O),SGV(H2)]
 Deg. of freedom     2
 Full point group                 C2V     NOp   4
 RotChk:  IX=0 Diff= 1.12D-16
 Largest Abelian subgroup         C2V     NOp   4
 Largest concise Abelian subgroup C2      NOp   2
                         Standard orientation:                         
 ---------------------------------------------------------------------
 Center     Atomic      Atomic             Coordinates (Angstroms)
 Number     Number       Type             X           Y           Z
 ---------------------------------------------------------------------
      1          8           0        0.000000    0.000000    0.167660
      2          1           0        0.000000    0.857381   -0.670639
      3          1           0       -0.000000   -0.857381   -0.670639
 ---------------------------------------------------------------------
 Rotational constants (GHZ):         401.7448266         341.0786847         184.4672321
 Leave Link  202 at Tue Jun  8 11:45:22 2021, MaxMem=   134217728 cpu:               0.2 elap:               0.0
 (Enter /APL/ISV/x86_64/gaussian/16/C.01/g16/l301.exe)
 Standard basis: CC-pVDZ (5D, 7F)
 Ernie: Thresh=  0.10000D-02 Tol=  0.10000D-05 Strict=F.
 Ernie:  2 primitive shells out of 32 were deleted.
 There are    12 symmetry adapted cartesian basis functions of A1  symmetry.
 There are     2 symmetry adapted cartesian basis functions of A2  symmetry.
 There are     4 symmetry adapted cartesian basis functions of B1  symmetry.
 There are     7 symmetry adapted cartesian basis functions of B2  symmetry.
 There are    11 symmetry adapted basis functions of A1  symmetry.
 There are     2 symmetry adapted basis functions of A2  symmetry.
 There are     4 symmetry adapted basis functions of B1  symmetry.
 There are     7 symmetry adapted basis functions of B2  symmetry.
    24 basis functions,    47 primitive gaussians,    25 cartesian basis functions
     5 alpha electrons        5 beta electrons
       nuclear repulsion energy         7.3695806062 Hartrees.
 IExCor=  402 DFT=T Ex+Corr=B3LYP ExCW=0 ScaHFX=  0.200000
 ScaDFX=  0.800000  0.720000  1.000000  0.810000 ScalE2=  1.000000  1.000000
 IRadAn=      5 IRanWt=     -1 IRanGd=            0 ICorTp=0 IEmpDi=  4
 NAtoms=    3 NActive=    3 NUniq=    2 SFac= 2.25D+00 NAtFMM=   60 NAOKFM=F Big=F
 Integral buffers will be    131072 words long.
 Raffenetti 2 integral format.
 Two-electron integral symmetry is turned on.
 Leave Link  301 at Tue Jun  8 11:45:22 2021, MaxMem=   134217728 cpu:               0.9 elap:               0.1
 (Enter /APL/ISV/x86_64/gaussian/16/C.01/g16/l302.exe)
 NPDir=0 NMtPBC=     1 NCelOv=     1 NCel=       1 NClECP=     1 NCelD=      1
         NCelK=      1 NCelE2=     1 NClLst=     1 CellRange=     0.0.
 One-electron integrals computed using PRISM.
 One-electron integral symmetry used in STVInt
 NBasis=    24 RedAO= T EigKep=  5.50D-02  NBF=    11     2     4     7
 NBsUse=    24 1.00D-06 EigRej= -1.00D+00 NBFU=    11     2     4     7
 Precomputing XC quadrature grid using
 IXCGrd= 4 IRadAn=           5 IRanWt=          -1 IRanGd=           0 AccXCQ= 0.00D+00.
 Generated NRdTot=       0 NPtTot=           0 NUsed=           0 NTot=          32
 NSgBfM=    25    25    25    25    25 MxSgAt=     3 MxSgA2=     3.
 Leave Link  302 at Tue Jun  8 11:45:22 2021, MaxMem=   134217728 cpu:               1.5 elap:               0.1
 (Enter /APL/ISV/x86_64/gaussian/16/C.01/g16/l303.exe)
 DipDrv:  MaxL=1.
 Leave Link  303 at Tue Jun  8 11:45:22 2021, MaxMem=   134217728 cpu:               0.4 elap:               0.0
 (Enter /APL/ISV/x86_64/gaussian/16/C.01/g16/l401.exe)
 Initial guess from the checkpoint file:  "water.chk"
 B after Tr=     0.000000    0.000000   -0.000000
         Rot=    1.000000   -0.000000   -0.000000    0.000000 Ang=   0.00 deg.
 Guess basis will be translated and rotated to current coordinates.
 JPrj=2 DoOrth=T DoCkMO=T.
 Initial guess orbital symmetries:
       Occupied  (A1) (A1) (B2) (A1) (B1)
       Virtual   (A1) (B2) (B2) (A1) (B1) (A1) (B2) (A1) (A2) (A1)
                 (B1) (B2) (B2) (A1) (A2) (B1) (A1) (A1) (B2)
 The electronic state of the initial guess is 1-A1.
 Generating alternative initial guess.
 ExpMin= 1.22D-01 ExpMax= 1.17D+04 ExpMxC= 4.01D+02 IAcc=3 IRadAn=         5 AccDes= 0.00D+00
 Harris functional with IExCor=  402 and IRadAn=       5 diagonalized for initial guess.
 HarFok:  IExCor=  402 AccDes= 0.00D+00 IRadAn=         5 IDoV= 1 UseB2=F ITyADJ=14
 ICtDFT=  3500011 ScaDFX=  1.000000  1.000000  1.000000  1.000000
 FoFCou: FMM=F IPFlag=           0 FMFlag=      100000 FMFlg1=           0
         NFxFlg=           0 DoJE=T BraDBF=F KetDBF=T FulRan=T
         wScrn=  0.000000 ICntrl=       500 IOpCl=  0 I1Cent=   200000004 NGrid=           0
         NMat0=    1 NMatS0=      1 NMatT0=    0 NMatD0=    1 NMtDS0=    0 NMtDT0=    0
 Petite list used in FoFCou.
 Harris En= -76.3937372097780    
 Leave Link  401 at Tue Jun  8 11:45:22 2021, MaxMem=   134217728 cpu:               2.8 elap:               0.2
 (Enter /APL/ISV/x86_64/gaussian/16/C.01/g16/l502.exe)
 Keep R1 ints in memory in symmetry-blocked form, NReq=13860511.
 FoFCou: FMM=F IPFlag=           0 FMFlag=           0 FMFlg1=           0
         NFxFlg=           0 DoJE=F BraDBF=F KetDBF=F FulRan=T
         wScrn=  0.000000 ICntrl=       600 IOpCl=  0 I1Cent=           0 NGrid=           0
         NMat0=    1 NMatS0=    300 NMatT0=    0 NMatD0=    1 NMtDS0=    0 NMtDT0=    0
 Petite list used in FoFCou.
 Closed shell SCF:
 Using DIIS extrapolation, IDIIS=  1040.
 NGot=   134217728 LenX=   134201682 LenY=   134200616
 Requested convergence on RMS density matrix=1.00D-08 within 128 cycles.
 Requested convergence on MAX density matrix=1.00D-06.
 Requested convergence on             energy=1.00D-06.
 No special actions if energy rises.
 Integral accuracy reduced to 1.0D-05 until final iterations.

 Cycle   1  Pass 0  IDiag  1:
 E= -76.3532928984676    
 DIIS: error= 1.99D-02 at cycle   1 NSaved=   1.
 NSaved= 1 IEnMin= 1 EnMin= -76.3532928984676     IErMin= 1 ErrMin= 1.99D-02
 ErrMax= 1.99D-02  0.00D+00 EMaxC= 1.00D-01 BMatC= 6.56D-03 BMatP= 6.56D-03
 IDIUse=3 WtCom= 8.01D-01 WtEn= 1.99D-01
 Coeff-Com:  0.100D+01
 Coeff-En:   0.100D+01
 Coeff:      0.100D+01
 Recover alternate guess density for next cycle.
 RMSDP=1.04D-02 MaxDP=1.01D-01              OVMax= 0.00D+00

 Cycle   2  Pass 0  IDiag  1:
 E= -76.2842671069348     Delta-E=        0.069025791533 Rises=F Damp=F
 Switch densities from cycles 1 and 2 for lowest energy.
 DIIS: error= 6.11D-02 at cycle   2 NSaved=   2.
 NSaved= 2 IEnMin= 1 EnMin= -76.3532928984676     IErMin= 1 ErrMin= 1.99D-02
 ErrMax= 6.11D-02  0.00D+00 EMaxC= 1.00D+00 BMatC= 9.00D-02 BMatP= 6.56D-03
 IDIUse=1 WtCom= 1.00D+00 WtEn= 0.00D+00
 Coeff-Com:  0.886D+00 0.114D+00
 Coeff:      0.886D+00 0.114D+00
 Gap=     0.331 Goal=   None    Shift=    0.000
 RMSDP=4.55D-03 MaxDP=2.63D-02 DE= 6.90D-02 OVMax= 5.15D-02

 Cycle   3  Pass 0  IDiag  1:
 E= -76.3620972204155     Delta-E=       -0.077830113481 Rises=F Damp=F
 DIIS: error= 3.85D-03 at cycle   3 NSaved=   3.
 NSaved= 3 IEnMin= 3 EnMin= -76.3620972204155     IErMin= 3 ErrMin= 3.85D-03
 ErrMax= 3.85D-03  0.00D+00 EMaxC= 1.00D+00 BMatC= 2.97D-04 BMatP= 6.56D-03
 IDIUse=1 WtCom= 1.00D+00 WtEn= 0.00D+00
 Coeff-Com:  0.465D-01 0.433D-01 0.910D+00
 Coeff:      0.465D-01 0.433D-01 0.910D+00
 Gap=     0.271 Goal=   None    Shift=    0.000
 RMSDP=6.83D-04 MaxDP=5.51D-03 DE=-7.78D-02 OVMax= 1.04D-02

 Cycle   4  Pass 0  IDiag  1:
 E= -76.3623846373126     Delta-E=       -0.000287416897 Rises=F Damp=F
 DIIS: error= 8.28D-04 at cycle   4 NSaved=   4.
 NSaved= 4 IEnMin= 4 EnMin= -76.3623846373126     IErMin= 4 ErrMin= 8.28D-04
 ErrMax= 8.28D-04  0.00D+00 EMaxC= 1.00D+00 BMatC= 1.49D-05 BMatP= 2.97D-04
 IDIUse=1 WtCom= 1.00D+00 WtEn= 0.00D+00
 Coeff-Com: -0.122D-01 0.874D-02 0.217D+00 0.786D+00
 Coeff:     -0.122D-01 0.874D-02 0.217D+00 0.786D+00
 Gap=     0.270 Goal=   None    Shift=    0.000
 RMSDP=9.62D-05 MaxDP=5.69D-04 DE=-2.87D-04 OVMax= 1.14D-03

 Cycle   5  Pass 0  IDiag  1:
 E= -76.3623958647058     Delta-E=       -0.000011227393 Rises=F Damp=F
 DIIS: error= 3.62D-05 at cycle   5 NSaved=   5.
 NSaved= 5 IEnMin= 5 EnMin= -76.3623958647058     IErMin= 5 ErrMin= 3.62D-05
 ErrMax= 3.62D-05  0.00D+00 EMaxC= 1.00D+00 BMatC= 2.45D-08 BMatP= 1.49D-05
 IDIUse=1 WtCom= 1.00D+00 WtEn= 0.00D+00
 Coeff-Com:  0.113D-03-0.503D-03-0.152D-01-0.521D-01 0.107D+01
 Coeff:      0.113D-03-0.503D-03-0.152D-01-0.521D-01 0.107D+01
 Gap=     0.270 Goal=   None    Shift=    0.000
 RMSDP=1.53D-05 MaxDP=1.47D-04 DE=-1.12D-05 OVMax= 2.45D-04

 Cycle   6  Pass 0  IDiag  1:
 E= -76.3623959453707     Delta-E=       -0.000000080665 Rises=F Damp=F
 DIIS: error= 3.01D-06 at cycle   6 NSaved=   6.
 NSaved= 6 IEnMin= 6 EnMin= -76.3623959453707     IErMin= 6 ErrMin= 3.01D-06
 ErrMax= 3.01D-06  0.00D+00 EMaxC= 1.00D+00 BMatC= 2.48D-10 BMatP= 2.45D-08
 IDIUse=1 WtCom= 1.00D+00 WtEn= 0.00D+00
 Coeff-Com:  0.809D-04-0.361D-04-0.417D-03-0.828D-03-0.837D-01 0.108D+01
 Coeff:      0.809D-04-0.361D-04-0.417D-03-0.828D-03-0.837D-01 0.108D+01
 Gap=     0.270 Goal=   None    Shift=    0.000
 RMSDP=1.64D-06 MaxDP=1.47D-05 DE=-8.07D-08 OVMax= 2.72D-05

 Initial convergence to 1.0D-05 achieved.  Increase integral accuracy.
 Cycle   7  Pass 1  IDiag  1:
 E= -76.3623955670166     Delta-E=        0.000000378354 Rises=F Damp=F
 DIIS: error= 1.19D-06 at cycle   1 NSaved=   1.
 NSaved= 1 IEnMin= 1 EnMin= -76.3623955670166     IErMin= 1 ErrMin= 1.19D-06
 ErrMax= 1.19D-06  0.00D+00 EMaxC= 1.00D+00 BMatC= 3.47D-11 BMatP= 3.47D-11
 IDIUse=1 WtCom= 1.00D+00 WtEn= 0.00D+00
 Coeff-Com:  0.100D+01
 Coeff:      0.100D+01
 Gap=     0.270 Goal=   None    Shift=    0.000
 RMSDP=1.64D-06 MaxDP=1.47D-05 DE= 3.78D-07 OVMax= 6.07D-06

 Cycle   8  Pass 1  IDiag  1:
 E= -76.3623955669417     Delta-E=        0.000000000075 Rises=F Damp=F
 DIIS: error= 1.97D-06 at cycle   2 NSaved=   2.
 NSaved= 2 IEnMin= 1 EnMin= -76.3623955670166     IErMin= 1 ErrMin= 1.19D-06
 ErrMax= 1.97D-06  0.00D+00 EMaxC= 1.00D+00 BMatC= 1.33D-10 BMatP= 3.47D-11
 IDIUse=1 WtCom= 1.00D+00 WtEn= 0.00D+00
 Coeff-Com:  0.665D+00 0.335D+00
 Coeff:      0.665D+00 0.335D+00
 Gap=     0.270 Goal=   None    Shift=    0.000
 RMSDP=2.83D-07 MaxDP=2.54D-06 DE= 7.49D-11 OVMax= 3.56D-06

 Cycle   9  Pass 1  IDiag  1:
 E= -76.3623955670475     Delta-E=       -0.000000000106 Rises=F Damp=F
 DIIS: error= 2.12D-08 at cycle   3 NSaved=   3.
 NSaved= 3 IEnMin= 3 EnMin= -76.3623955670475     IErMin= 3 ErrMin= 2.12D-08
 ErrMax= 2.12D-08  0.00D+00 EMaxC= 1.00D+00 BMatC= 1.33D-14 BMatP= 3.47D-11
 IDIUse=1 WtCom= 1.00D+00 WtEn= 0.00D+00
 Coeff-Com: -0.315D-01-0.180D-01 0.105D+01
 Coeff:     -0.315D-01-0.180D-01 0.105D+01
 Gap=     0.270 Goal=   None    Shift=    0.000
 RMSDP=8.61D-09 MaxDP=9.55D-08 DE=-1.06D-10 OVMax= 1.53D-07

 SCF Done:  E(RB3LYP) =  -76.3623955670     A.U. after    9 cycles
            NFock=  9  Conv=0.86D-08     -V/T= 2.0109
 KE= 7.553559563867D+01 PE=-1.953107336973D+02 EE= 3.604316188533D+01
 Leave Link  502 at Tue Jun  8 11:45:23 2021, MaxMem=   134217728 cpu:               2.3 elap:               0.2
 (Enter /APL/ISV/x86_64/gaussian/16/C.01/g16/l701.exe)
 ... and contract with generalized density number  0.
 Compute integral first derivatives.
 Leave Link  701 at Tue Jun  8 11:45:23 2021, MaxMem=   134217728 cpu:               1.3 elap:               0.1
 (Enter /APL/ISV/x86_64/gaussian/16/C.01/g16/l702.exe)
 L702 exits ... SP integral derivatives will be done elsewhere.
 Leave Link  702 at Tue Jun  8 11:45:23 2021, MaxMem=   134217728 cpu:               0.5 elap:               0.1
 (Enter /APL/ISV/x86_64/gaussian/16/C.01/g16/l703.exe)
 Integral derivatives from FoFJK, PRISM(SPDF).
 Compute integral first derivatives, UseDBF=F ICtDFT=           0.
 Calling FoFJK, ICntrl=      2127 FMM=F ISym2X=1 I1Cent= 0 IOpClX= 0 NMat=1 NMatS=1 NMatT=0.
 FoFJK:  IHMeth= 1 ICntrl=    2127 DoSepK=F KAlg= 0 I1Cent=           0 FoldK=F
 IRaf=         0 NMat=       1 IRICut=       1 DoRegI=T DoRafI=F ISym2E= 1 IDoP0=0 IntGTp=1.
 FoFCou: FMM=F IPFlag=           0 FMFlag=      100000 FMFlg1=         800
         NFxFlg=           0 DoJE=F BraDBF=F KetDBF=F FulRan=T
         wScrn=  0.000000 ICntrl=      2127 IOpCl=  0 I1Cent=           0 NGrid=           0
         NMat0=    1 NMatS0=      1 NMatT0=    0 NMatD0=    1 NMtDS0=    0 NMtDT0=    0
 Petite list used in FoFCou.
 Leave Link  703 at Tue Jun  8 11:45:23 2021, MaxMem=   134217728 cpu:               2.0 elap:               0.1
 (Enter /APL/ISV/x86_64/gaussian/16/C.01/g16/l716.exe)
 Dipole        =-3.89478700D-17 2.22044605D-16-8.31877381D-01
 ***** Axes restored to original set *****
 -------------------------------------------------------------------
 Center     Atomic                   Forces (Hartrees/Bohr)
 Number     Number              X              Y              Z
 -------------------------------------------------------------------
      1        8           0.105469317    0.105469317    0.000000000
      2        1          -0.102016588   -0.003452729   -0.000000000
      3        1          -0.003452729   -0.102016588   -0.000000000
 -------------------------------------------------------------------
 Cartesian Forces:  Max     0.105469317 RMS     0.069190690
 Leave Link  716 at Tue Jun  8 11:45:23 2021, MaxMem=   134217728 cpu:               0.4 elap:               0.0
 (Enter /APL/ISV/x86_64/gaussian/16/C.01/g16/l103.exe)

 GradGradGradGradGradGradGradGradGradGradGradGradGradGradGradGradGradGrad
 Berny optimization.
 Using GEDIIS/GDIIS optimizer.
 FormGI is forming the generalized inverse of G from B-inverse, IUseBI=4.
 Internal  Forces:  Max     0.101971275 RMS     0.083476452
 Search for a local minimum.
 Step number   3 out of a maximum of   20
 All quantities printed in internal units (Hartrees-Bohrs-Radians)
 RMS Force = .83476D-01 SwitMx=.10000D-02 MixMth= 1
 Mixed Optimization -- RFO/linear search
 Update second derivatives using D2CorX and points    2    3
 DE= -7.80D-02 DEPred=-8.22D-02 R= 9.49D-01
 TightC=F SS=  1.41D+00  RLast= 5.05D-01 DXNew= 8.4853D-01 1.5136D+00
 Trust test= 9.49D-01 RLast= 5.05D-01 DXMaxT set to 8.49D-01
 The second derivative matrix:
                          R1        R2        A1
           R1           0.06988
           R2          -0.04345   0.06988
           A1           0.01344   0.01344   0.16408
 ITU=  1  1  0
 Use linear search instead of GDIIS.
     Eigenvalues ---    0.02385   0.11333   0.16665
 RFO step:  Lambda=-1.33016736D-01 EMin= 2.38509855D-02
 Skip linear search -- no minimum in search direction.
 Maximum step size (   0.849) exceeded in Quadratic search.
    -- Step size scaled by   0.922
 Iteration  1 RMS(Cart)=  0.11614561 RMS(Int)=  0.32598081
 Iteration  2 RMS(Cart)=  0.14001407 RMS(Int)=  0.16266379
 Iteration  3 RMS(Cart)=  0.13607796 RMS(Int)=  0.00006114
 Iteration  4 RMS(Cart)=  0.00005738 RMS(Int)=  0.00000000
 Iteration  5 RMS(Cart)=  0.00000000 RMS(Int)=  0.00000000
 ITry= 1 IFail=0 DXMaxC= 3.78D-01 DCOld= 1.00D+10 DXMaxT= 8.49D-01 DXLimC= 3.00D+00 Rises=F
 ClnCor:  largest displacement from symmetrization is 3.07D-14 for atom     3.
 Variable       Old X    -DE/DX   Delta X   Delta X   Delta X     New X
                                 (Linear)    (Quad)   (Total)
    R1        2.26597  -0.10197   0.00000  -0.59689  -0.59689   1.66909
    R2        2.26597  -0.10197   0.00000  -0.59689  -0.59689   1.66909
    A1        1.59330   0.01042   0.00000   0.08635   0.08635   1.67965
         Item               Value     Threshold  Converged?
 Maximum Force            0.101971     0.000450     NO 
 RMS     Force            0.083476     0.000300     NO 
 Maximum Displacement     0.377709     0.001800     NO 
 RMS     Displacement     0.379586     0.001200     NO 
 Predicted change in Energy=-1.139889D-01
 Lowest energy point so far.  Saving SCF results.
 GradGradGradGradGradGradGradGradGradGradGradGradGradGradGradGradGradGrad

 Leave Link  103 at Tue Jun  8 11:45:23 2021, MaxMem=   134217728 cpu:               0.2 elap:               0.0
 (Enter /APL/ISV/x86_64/gaussian/16/C.01/g16/l202.exe)
                          Input orientation:                          
 ---------------------------------------------------------------------
 Center     Atomic      Atomic             Coordinates (Angstroms)
 Number     Number       Type             X           Y           Z
 ---------------------------------------------------------------------
      1          8           0        0.222037    0.222037    0.000000
      2          1           0        1.103974    0.173989   -0.000000
      3          1           0        0.173989    1.103974    0.000000
 ---------------------------------------------------------------------
                    Distance matrix (angstroms):
                    1          2          3
     1  O    0.000000
     2  H    0.883244   0.000000
     3  H    0.883244   1.315197   0.000000
 Stoichiometry    H2O
 Framework group  C2V[C2(O),SGV(H2)]
 Deg. of freedom     2
 Full point group                 C2V     NOp   4
 RotChk:  IX=0 Diff= 4.19D-16
 Largest Abelian subgroup         C2V     NOp   4
 Largest concise Abelian subgroup C2      NOp   2
                         Standard orientation:                         
 ---------------------------------------------------------------------
 Center     Atomic      Atomic             Coordinates (Angstroms)
 Number     Number       Type             X           Y           Z
 ---------------------------------------------------------------------
      1          8           0       -0.000000    0.000000    0.117930
      2          1           0       -0.000000    0.657598   -0.471718
      3          1           0       -0.000000   -0.657598   -0.471718
 ---------------------------------------------------------------------
 Rotational constants (GHZ):         812.0116955         579.8032622         338.2684080
 Leave Link  202 at Tue Jun  8 11:45:23 2021, MaxMem=   134217728 cpu:               0.2 elap:               0.0
 (Enter /APL/ISV/x86_64/gaussian/16/C.01/g16/l301.exe)
 Standard basis: CC-pVDZ (5D, 7F)
 Ernie: Thresh=  0.10000D-02 Tol=  0.10000D-05 Strict=F.
 Ernie:  2 primitive shells out of 32 were deleted.
 There are    12 symmetry adapted cartesian basis functions of A1  symmetry.
 There are     2 symmetry adapted cartesian basis functions of A2  symmetry.
 There are     4 symmetry adapted cartesian basis functions of B1  symmetry.
 There are     7 symmetry adapted cartesian basis functions of B2  symmetry.
 There are    11 symmetry adapted basis functions of A1  symmetry.
 There are     2 symmetry adapted basis functions of A2  symmetry.
 There are     4 symmetry adapted basis functions of B1  symmetry.
 There are     7 symmetry adapted basis functions of B2  symmetry.
    24 basis functions,    47 primitive gaussians,    25 cartesian basis functions
     5 alpha electrons        5 beta electrons
       nuclear repulsion energy         9.9884221704 Hartrees.
 IExCor=  402 DFT=T Ex+Corr=B3LYP ExCW=0 ScaHFX=  0.200000
 ScaDFX=  0.800000  0.720000  1.000000  0.810000 ScalE2=  1.000000  1.000000
 IRadAn=      5 IRanWt=     -1 IRanGd=            0 ICorTp=0 IEmpDi=  4
 NAtoms=    3 NActive=    3 NUniq=    2 SFac= 2.25D+00 NAtFMM=   60 NAOKFM=F Big=F
 Integral buffers will be    131072 words long.
 Raffenetti 2 integral format.
 Two-electron integral symmetry is turned on.
 Leave Link  301 at Tue Jun  8 11:45:23 2021, MaxMem=   134217728 cpu:               0.9 elap:               0.1
 (Enter /APL/ISV/x86_64/gaussian/16/C.01/g16/l302.exe)
 NPDir=0 NMtPBC=     1 NCelOv=     1 NCel=       1 NClECP=     1 NCelD=      1
         NCelK=      1 NCelE2=     1 NClLst=     1 CellRange=     0.0.
 One-electron integrals computed using PRISM.
 One-electron integral symmetry used in STVInt
 NBasis=    24 RedAO= T EigKep=  2.91D-02  NBF=    11     2     4     7
 NBsUse=    24 1.00D-06 EigRej= -1.00D+00 NBFU=    11     2     4     7
 Precomputing XC quadrature grid using
 IXCGrd= 4 IRadAn=           5 IRanWt=          -1 IRanGd=           0 AccXCQ= 0.00D+00.
 Generated NRdTot=       0 NPtTot=           0 NUsed=           0 NTot=          32
 NSgBfM=    25    25    25    25    25 MxSgAt=     3 MxSgA2=     3.
 Leave Link  302 at Tue Jun  8 11:45:23 2021, MaxMem=   134217728 cpu:               1.6 elap:               0.1
 (Enter /APL/ISV/x86_64/gaussian/16/C.01/g16/l303.exe)
 DipDrv:  MaxL=1.
 Leave Link  303 at Tue Jun  8 11:45:23 2021, MaxMem=   134217728 cpu:               0.5 elap:               0.1
 (Enter /APL/ISV/x86_64/gaussian/16/C.01/g16/l401.exe)
 Initial guess from the checkpoint file:  "water.chk"
 B after Tr=     0.000000    0.000000   -0.000000
         Rot=    1.000000    0.000000   -0.000000    0.000000 Ang=   0.00 deg.
 Guess basis will be translated and rotated to current coordinates.
 JPrj=2 DoOrth=T DoCkMO=T.
 Initial guess orbital symmetries:
       Occupied  (A1) (A1) (B2) (A1) (B1)
       Virtual   (A1) (B2) (B2) (A1) (B1) (A1) (B2) (A1) (A2) (B1)
                 (B2) (A1) (B2) (A1) (A2) (B1) (A1) (A1) (B2)
 The electronic state of the initial guess is 1-A1.
 Generating alternative initial guess.
 ExpMin= 1.22D-01 ExpMax= 1.17D+04 ExpMxC= 4.01D+02 IAcc=3 IRadAn=         5 AccDes= 0.00D+00
 Harris functional with IExCor=  402 and IRadAn=       5 diagonalized for initial guess.
 HarFok:  IExCor=  402 AccDes= 0.00D+00 IRadAn=         5 IDoV= 1 UseB2=F ITyADJ=14
 ICtDFT=  3500011 ScaDFX=  1.000000  1.000000  1.000000  1.000000
 FoFCou: FMM=F IPFlag=           0 FMFlag=      100000 FMFlg1=           0
         NFxFlg=           0 DoJE=T BraDBF=F KetDBF=T FulRan=T
         wScrn=  0.000000 ICntrl=       500 IOpCl=  0 I1Cent=   200000004 NGrid=           0
         NMat0=    1 NMatS0=      1 NMatT0=    0 NMatD0=    1 NMtDS0=    0 NMtDT0=    0
 Petite list used in FoFCou.
 Harris En= -76.4492199291640    
 Leave Link  401 at Tue Jun  8 11:45:24 2021, MaxMem=   134217728 cpu:               2.9 elap:               0.2
 (Enter /APL/ISV/x86_64/gaussian/16/C.01/g16/l502.exe)
 Keep R1 ints in memory in symmetry-blocked form, NReq=13860511.
 FoFCou: FMM=F IPFlag=           0 FMFlag=           0 FMFlg1=           0
         NFxFlg=           0 DoJE=F BraDBF=F KetDBF=F FulRan=T
         wScrn=  0.000000 ICntrl=       600 IOpCl=  0 I1Cent=           0 NGrid=           0
         NMat0=    1 NMatS0=    300 NMatT0=    0 NMatD0=    1 NMtDS0=    0 NMtDT0=    0
 Petite list used in FoFCou.
 Closed shell SCF:
 Using DIIS extrapolation, IDIIS=  1040.
 NGot=   134217728 LenX=   134201682 LenY=   134200616
 Requested convergence on RMS density matrix=1.00D-08 within 128 cycles.
 Requested convergence on MAX density matrix=1.00D-06.
 Requested convergence on             energy=1.00D-06.
 No special actions if energy rises.
 Integral accuracy reduced to 1.0D-05 until final iterations.

 Cycle   1  Pass 0  IDiag  1:
 E= -76.3519613285856    
 DIIS: error= 4.48D-02 at cycle   1 NSaved=   1.
 NSaved= 1 IEnMin= 1 EnMin= -76.3519613285856     IErMin= 1 ErrMin= 4.48D-02
 ErrMax= 4.48D-02  0.00D+00 EMaxC= 1.00D-01 BMatC= 4.33D-02 BMatP= 4.33D-02
 IDIUse=3 WtCom= 5.52D-01 WtEn= 4.48D-01
 Coeff-Com:  0.100D+01
 Coeff-En:   0.100D+01
 Coeff:      0.100D+01
 Recover alternate guess density for next cycle.
 RMSDP=1.71D-02 MaxDP=1.41D-01              OVMax= 0.00D+00

 Cycle   2  Pass 0  IDiag  1:
 E= -76.3121120176429     Delta-E=        0.039849310943 Rises=F Damp=F
 Switch densities from cycles 1 and 2 for lowest energy.
 DIIS: error= 7.04D-02 at cycle   2 NSaved=   2.
 NSaved= 2 IEnMin= 1 EnMin= -76.3519613285856     IErMin= 1 ErrMin= 4.48D-02
 ErrMax= 7.04D-02  0.00D+00 EMaxC= 1.00D+00 BMatC= 1.26D-01 BMatP= 4.33D-02
 IDIUse=1 WtCom= 1.00D+00 WtEn= 0.00D+00
 Coeff-Com:  0.691D+00 0.309D+00
 Coeff:      0.691D+00 0.309D+00
 Gap=     0.460 Goal=   None    Shift=    0.000
 RMSDP=1.25D-02 MaxDP=8.71D-02 DE= 3.98D-02 OVMax= 1.07D-01

 Cycle   3  Pass 0  IDiag  1:
 E= -76.3979484439712     Delta-E=       -0.085836426328 Rises=F Damp=F
 DIIS: error= 1.49D-02 at cycle   3 NSaved=   3.
 NSaved= 3 IEnMin= 3 EnMin= -76.3979484439712     IErMin= 3 ErrMin= 1.49D-02
 ErrMax= 1.49D-02  0.00D+00 EMaxC= 1.00D+00 BMatC= 5.33D-03 BMatP= 4.33D-02
 IDIUse=1 WtCom= 1.00D+00 WtEn= 0.00D+00
 Coeff-Com:  0.720D-01 0.160D+00 0.768D+00
 Coeff:      0.720D-01 0.160D+00 0.768D+00
 Gap=     0.361 Goal=   None    Shift=    0.000
 RMSDP=1.88D-03 MaxDP=1.67D-02 DE=-8.58D-02 OVMax= 2.02D-02

 Cycle   4  Pass 0  IDiag  1:
 E= -76.4015982573827     Delta-E=       -0.003649813411 Rises=F Damp=F
 DIIS: error= 1.32D-03 at cycle   4 NSaved=   4.
 NSaved= 4 IEnMin= 4 EnMin= -76.4015982573827     IErMin= 4 ErrMin= 1.32D-03
 ErrMax= 1.32D-03  0.00D+00 EMaxC= 1.00D+00 BMatC= 3.50D-05 BMatP= 5.33D-03
 IDIUse=1 WtCom= 1.00D+00 WtEn= 0.00D+00
 Coeff-Com: -0.564D-02 0.242D-01 0.126D+00 0.855D+00
 Coeff:     -0.564D-02 0.242D-01 0.126D+00 0.855D+00
 Gap=     0.361 Goal=   None    Shift=    0.000
 RMSDP=1.70D-04 MaxDP=1.03D-03 DE=-3.65D-03 OVMax= 1.76D-03

 Cycle   5  Pass 0  IDiag  1:
 E= -76.4016238967532     Delta-E=       -0.000025639371 Rises=F Damp=F
 DIIS: error= 6.48D-05 at cycle   5 NSaved=   5.
 NSaved= 5 IEnMin= 5 EnMin= -76.4016238967532     IErMin= 5 ErrMin= 6.48D-05
 ErrMax= 6.48D-05  0.00D+00 EMaxC= 1.00D+00 BMatC= 1.56D-07 BMatP= 3.50D-05
 IDIUse=1 WtCom= 1.00D+00 WtEn= 0.00D+00
 Coeff-Com: -0.191D-03-0.629D-03-0.800D-02-0.821D-02 0.102D+01
 Coeff:     -0.191D-03-0.629D-03-0.800D-02-0.821D-02 0.102D+01
 Gap=     0.361 Goal=   None    Shift=    0.000
 RMSDP=1.83D-05 MaxDP=1.89D-04 DE=-2.56D-05 OVMax= 2.61D-04

 Cycle   6  Pass 0  IDiag  1:
 E= -76.4016240480954     Delta-E=       -0.000000151342 Rises=F Damp=F
 DIIS: error= 2.98D-06 at cycle   6 NSaved=   6.
 NSaved= 6 IEnMin= 6 EnMin= -76.4016240480954     IErMin= 6 ErrMin= 2.98D-06
 ErrMax= 2.98D-06  0.00D+00 EMaxC= 1.00D+00 BMatC= 1.64D-10 BMatP= 1.56D-07
 IDIUse=1 WtCom= 1.00D+00 WtEn= 0.00D+00
 Coeff-Com:  0.177D-04-0.329D-04 0.108D-03-0.951D-03-0.535D-01 0.105D+01
 Coeff:      0.177D-04-0.329D-04 0.108D-03-0.951D-03-0.535D-01 0.105D+01
 Gap=     0.361 Goal=   None    Shift=    0.000
 RMSDP=1.31D-06 MaxDP=9.63D-06 DE=-1.51D-07 OVMax= 1.94D-05

 Initial convergence to 1.0D-05 achieved.  Increase integral accuracy.
 Cycle   7  Pass 1  IDiag  1:
 E= -76.4016244755804     Delta-E=       -0.000000427485 Rises=F Damp=F
 DIIS: error= 6.18D-07 at cycle   1 NSaved=   1.
 NSaved= 1 IEnMin= 1 EnMin= -76.4016244755804     IErMin= 1 ErrMin= 6.18D-07
 ErrMax= 6.18D-07  0.00D+00 EMaxC= 1.00D+00 BMatC= 5.43D-12 BMatP= 5.43D-12
 IDIUse=1 WtCom= 1.00D+00 WtEn= 0.00D+00
 Coeff-Com:  0.100D+01
 Coeff:      0.100D+01
 Gap=     0.361 Goal=   None    Shift=    0.000
 RMSDP=1.31D-06 MaxDP=9.63D-06 DE=-4.27D-07 OVMax= 1.49D-06

 Cycle   8  Pass 1  IDiag  1:
 E= -76.4016244755815     Delta-E=       -0.000000000001 Rises=F Damp=F
 DIIS: error= 4.48D-07 at cycle   2 NSaved=   2.
 NSaved= 2 IEnMin= 2 EnMin= -76.4016244755815     IErMin= 2 ErrMin= 4.48D-07
 ErrMax= 4.48D-07  0.00D+00 EMaxC= 1.00D+00 BMatC= 5.13D-12 BMatP= 5.43D-12
 IDIUse=1 WtCom= 1.00D+00 WtEn= 0.00D+00
 Coeff-Com:  0.492D+00 0.508D+00
 Coeff:      0.492D+00 0.508D+00
 Gap=     0.361 Goal=   None    Shift=    0.000
 RMSDP=6.10D-08 MaxDP=5.70D-07 DE=-1.15D-12 OVMax= 5.93D-07

 Cycle   9  Pass 1  IDiag  1:
 E= -76.4016244755850     Delta-E=       -0.000000000003 Rises=F Damp=F
 DIIS: error= 7.39D-08 at cycle   3 NSaved=   3.
 NSaved= 3 IEnMin= 3 EnMin= -76.4016244755850     IErMin= 3 ErrMin= 7.39D-08
 ErrMax= 7.39D-08  0.00D+00 EMaxC= 1.00D+00 BMatC= 1.44D-13 BMatP= 5.13D-12
 IDIUse=1 WtCom= 1.00D+00 WtEn= 0.00D+00
 Coeff-Com:  0.634D-02 0.142D+00 0.852D+00
 Coeff:      0.634D-02 0.142D+00 0.852D+00
 Gap=     0.361 Goal=   None    Shift=    0.000
 RMSDP=9.71D-09 MaxDP=8.50D-08 DE=-3.41D-12 OVMax= 1.04D-07

 SCF Done:  E(RB3LYP) =  -76.4016244756     A.U. after    9 cycles
            NFock=  9  Conv=0.97D-08     -V/T= 2.0002
 KE= 7.638600611330D+01 PE=-2.009595339949D+02 EE= 3.818348123565D+01
 Leave Link  502 at Tue Jun  8 11:45:24 2021, MaxMem=   134217728 cpu:               2.3 elap:               0.2
 (Enter /APL/ISV/x86_64/gaussian/16/C.01/g16/l701.exe)
 ... and contract with generalized density number  0.
 Compute integral first derivatives.
 Leave Link  701 at Tue Jun  8 11:45:24 2021, MaxMem=   134217728 cpu:               1.4 elap:               0.1
 (Enter /APL/ISV/x86_64/gaussian/16/C.01/g16/l702.exe)
 L702 exits ... SP integral derivatives will be done elsewhere.
 Leave Link  702 at Tue Jun  8 11:45:24 2021, MaxMem=   134217728 cpu:               0.4 elap:               0.0
 (Enter /APL/ISV/x86_64/gaussian/16/C.01/g16/l703.exe)
 Integral derivatives from FoFJK, PRISM(SPDF).
 Compute integral first derivatives, UseDBF=F ICtDFT=           0.
 Calling FoFJK, ICntrl=      2127 FMM=F ISym2X=1 I1Cent= 0 IOpClX= 0 NMat=1 NMatS=1 NMatT=0.
 FoFJK:  IHMeth= 1 ICntrl=    2127 DoSepK=F KAlg= 0 I1Cent=           0 FoldK=F
 IRaf=         0 NMat=       1 IRICut=       1 DoRegI=T DoRafI=F ISym2E= 1 IDoP0=0 IntGTp=1.
 FoFCou: FMM=F IPFlag=           0 FMFlag=      100000 FMFlg1=         800
         NFxFlg=           0 DoJE=F BraDBF=F KetDBF=F FulRan=T
         wScrn=  0.000000 ICntrl=      2127 IOpCl=  0 I1Cent=           0 NGrid=           0
         NMat0=    1 NMatS0=      1 NMatT0=    0 NMatD0=    1 NMtDS0=    0 NMtDT0=    0
 Petite list used in FoFCou.
 Leave Link  703 at Tue Jun  8 11:45:24 2021, MaxMem=   134217728 cpu:               2.1 elap:               0.2
 (Enter /APL/ISV/x86_64/gaussian/16/C.01/g16/l716.exe)
 Dipole        =-1.59743563D-17 2.22044605D-16-7.77233260D-01
 ***** Axes restored to original set *****
 -------------------------------------------------------------------
 Center     Atomic                   Forces (Hartrees/Bohr)
 Number     Number              X              Y              Z
 -------------------------------------------------------------------
      1        8          -0.090260548   -0.090260548    0.000000000
      2        1           0.116531208   -0.026270660   -0.000000000
      3        1          -0.026270660    0.116531208   -0.000000000
 -------------------------------------------------------------------
 Cartesian Forces:  Max     0.116531208 RMS     0.070579564
 Leave Link  716 at Tue Jun  8 11:45:24 2021, MaxMem=   134217728 cpu:               0.4 elap:               0.0
 (Enter /APL/ISV/x86_64/gaussian/16/C.01/g16/l103.exe)

 GradGradGradGradGradGradGradGradGradGradGradGradGradGradGradGradGradGrad
 Berny optimization.
 Using GEDIIS/GDIIS optimizer.
 FormGI is forming the generalized inverse of G from B-inverse, IUseBI=4.
 Internal  Forces:  Max     0.117787773 RMS     0.098065136
 Search for a local minimum.
 Step number   4 out of a maximum of   20
 All quantities printed in internal units (Hartrees-Bohrs-Radians)
 RMS Force = .98065D-01 SwitMx=.10000D-02 MixMth= 1
 Mixed Optimization -- RFO/linear search
 Update second derivatives using D2CorX and points    3    4
 DE= -3.92D-02 DEPred=-1.14D-01 R= 3.44D-01
 Trust test= 3.44D-01 RLast= 8.49D-01 DXMaxT set to 8.49D-01
 The second derivative matrix:
                          R1        R2        A1
           R1           0.24300
           R2           0.12967   0.24300
           A1           0.03108   0.03108   0.16586
 ITU=  0  1  1  0
 Use linear search instead of GDIIS.
     Eigenvalues ---    0.11333   0.15691   0.38162
 RFO step:  Lambda=-6.81817956D-03 EMin= 1.13327293D-01
 Quartic linear search produced a step of -0.28875.
 Iteration  1 RMS(Cart)=  0.17890457 RMS(Int)=  0.01040492
 Iteration  2 RMS(Cart)=  0.00796048 RMS(Int)=  0.00005617
 Iteration  3 RMS(Cart)=  0.00005997 RMS(Int)=  0.00000000
 Iteration  4 RMS(Cart)=  0.00000000 RMS(Int)=  0.00000000
 ITry= 1 IFail=0 DXMaxC= 1.62D-01 DCOld= 1.00D+10 DXMaxT= 8.49D-01 DXLimC= 3.00D+00 Rises=F
 ClnCor:  largest displacement from symmetrization is 5.78D-15 for atom     3.
 Variable       Old X    -DE/DX   Delta X   Delta X   Delta X     New X
                                 (Linear)    (Quad)   (Total)
    R1        1.66909   0.11779   0.17235  -0.00997   0.16238   1.83146
    R2        1.66909   0.11779   0.17235  -0.00997   0.16238   1.83146
    A1        1.67965   0.03320  -0.02493   0.20122   0.17629   1.85594
         Item               Value     Threshold  Converged?
 Maximum Force            0.117788     0.000450     NO 
 RMS     Force            0.098065     0.000300     NO 
 Maximum Displacement     0.161711     0.001800     NO 
 RMS     Displacement     0.182433     0.001200     NO 
 Predicted change in Energy=-2.992252D-02
[...]
 Ernie: Thresh=  0.10000D-02 Tol=  0.10000D-05 Strict=F.
 Ernie:  2 primitive shells out of 32 were deleted.
 There are    12 symmetry adapted cartesian basis functions of A1  symmetry.
 There are     2 symmetry adapted cartesian basis functions of A2  symmetry.
 There are     4 symmetry adapted cartesian basis functions of B1  symmetry.
 There are     7 symmetry adapted cartesian basis functions of B2  symmetry.
 There are    11 symmetry adapted basis functions of A1  symmetry.
 There are     2 symmetry adapted basis functions of A2  symmetry.
 There are     4 symmetry adapted basis functions of B1  symmetry.
 There are     7 symmetry adapted basis functions of B2  symmetry.
    24 basis functions,    47 primitive gaussians,    25 cartesian basis functions
     5 alpha electrons        5 beta electrons
       nuclear repulsion energy         9.0893135050 Hartrees.
 IExCor=  402 DFT=T Ex+Corr=B3LYP ExCW=0 ScaHFX=  0.200000
 ScaDFX=  0.800000  0.720000  1.000000  0.810000 ScalE2=  1.000000  1.000000
 IRadAn=      5 IRanWt=     -1 IRanGd=            0 ICorTp=0 IEmpDi=  4
 NAtoms=    3 NActive=    3 NUniq=    2 SFac= 2.25D+00 NAtFMM=   60 NAOKFM=F Big=F
 Integral buffers will be    131072 words long.
 Raffenetti 2 integral format.
 Two-electron integral symmetry is turned on.
 Leave Link  301 at Tue Jun  8 11:45:27 2021, MaxMem=   134217728 cpu:               1.0 elap:               0.1
 (Enter /APL/ISV/x86_64/gaussian/16/C.01/g16/l302.exe)
 NPDir=0 NMtPBC=     1 NCelOv=     1 NCel=       1 NClECP=     1 NCelD=      1
         NCelK=      1 NCelE2=     1 NClLst=     1 CellRange=     0.0.
 One-electron integrals computed using PRISM.
 One-electron integral symmetry used in STVInt
 NBasis=    24 RedAO= T EigKep=  3.51D-02  NBF=    11     2     4     7
 NBsUse=    24 1.00D-06 EigRej= -1.00D+00 NBFU=    11     2     4     7
 Precomputing XC quadrature grid using
 IXCGrd= 4 IRadAn=           5 IRanWt=          -1 IRanGd=           0 AccXCQ= 0.00D+00.
 Generated NRdTot=       0 NPtTot=           0 NUsed=           0 NTot=          32
 NSgBfM=    25    25    25    25    25 MxSgAt=     3 MxSgA2=     3.
 Leave Link  302 at Tue Jun  8 11:45:27 2021, MaxMem=   134217728 cpu:               1.6 elap:               0.1
 (Enter /APL/ISV/x86_64/gaussian/16/C.01/g16/l303.exe)
 DipDrv:  MaxL=1.
 Leave Link  303 at Tue Jun  8 11:45:27 2021, MaxMem=   134217728 cpu:               0.4 elap:               0.0
 (Enter /APL/ISV/x86_64/gaussian/16/C.01/g16/l401.exe)
 Initial guess from the checkpoint file:  "water.chk"
 B after Tr=    -0.000000    0.000000    0.000000
         Rot=    1.000000    0.000000   -0.000000    0.000000 Ang=   0.00 deg.
 Guess basis will be translated and rotated to current coordinates.
 JPrj=2 DoOrth=T DoCkMO=T.
 Initial guess orbital symmetries:
       Occupied  (A1) (A1) (B2) (A1) (B1)
       Virtual   (A1) (B2) (B2) (A1) (A1) (B1) (B2) (A1) (A2) (B1)
                 (A1) (B2) (B2) (A1) (B1) (A2) (A1) (A1) (B2)
 The electronic state of the initial guess is 1-A1.
 Leave Link  401 at Tue Jun  8 11:45:27 2021, MaxMem=   134217728 cpu:               1.6 elap:               0.1
 (Enter /APL/ISV/x86_64/gaussian/16/C.01/g16/l502.exe)
 Keep R1 ints in memory in symmetry-blocked form, NReq=13860511.
 FoFCou: FMM=F IPFlag=           0 FMFlag=           0 FMFlg1=           0
         NFxFlg=           0 DoJE=F BraDBF=F KetDBF=F FulRan=T
         wScrn=  0.000000 ICntrl=       600 IOpCl=  0 I1Cent=           0 NGrid=           0
         NMat0=    1 NMatS0=    300 NMatT0=    0 NMatD0=    1 NMtDS0=    0 NMtDT0=    0
 Petite list used in FoFCou.
 Closed shell SCF:
 Using DIIS extrapolation, IDIIS=  1040.
 NGot=   134217728 LenX=   134201682 LenY=   134200616
 Requested convergence on RMS density matrix=1.00D-08 within 128 cycles.
 Requested convergence on MAX density matrix=1.00D-06.
 Requested convergence on             energy=1.00D-06.
 No special actions if energy rises.

 Cycle   1  Pass 1  IDiag  1:
 E= -76.4206144303159    
 DIIS: error= 6.28D-04 at cycle   1 NSaved=   1.
 NSaved= 1 IEnMin= 1 EnMin= -76.4206144303159     IErMin= 1 ErrMin= 6.28D-04
 ErrMax= 6.28D-04  0.00D+00 EMaxC= 1.00D-01 BMatC= 9.39D-06 BMatP= 9.39D-06
 IDIUse=3 WtCom= 9.94D-01 WtEn= 6.28D-03
 Coeff-Com:  0.100D+01
 Coeff-En:   0.100D+01
 Coeff:      0.100D+01
 Gap=     0.337 Goal=   None    Shift=    0.000
 RMSDP=2.40D-04 MaxDP=1.73D-03              OVMax= 1.61D-03

 Cycle   2  Pass 1  IDiag  1:
 E= -76.4206268141620     Delta-E=       -0.000012383846 Rises=F Damp=F
 DIIS: error= 1.11D-04 at cycle   2 NSaved=   2.
 NSaved= 2 IEnMin= 2 EnMin= -76.4206268141620     IErMin= 2 ErrMin= 1.11D-04
 ErrMax= 1.11D-04  0.00D+00 EMaxC= 1.00D-01 BMatC= 3.19D-07 BMatP= 9.39D-06
 IDIUse=3 WtCom= 9.99D-01 WtEn= 1.11D-03
 Coeff-Com:  0.122D-01 0.988D+00
 Coeff-En:   0.000D+00 0.100D+01
 Coeff:      0.122D-01 0.988D+00
 Gap=     0.337 Goal=   None    Shift=    0.000
 RMSDP=2.77D-05 MaxDP=2.74D-04 DE=-1.24D-05 OVMax= 2.51D-04

 Cycle   3  Pass 1  IDiag  1:
 E= -76.4206267151720     Delta-E=        0.000000098990 Rises=F Damp=F
 DIIS: error= 1.28D-04 at cycle   3 NSaved=   3.
 NSaved= 3 IEnMin= 2 EnMin= -76.4206268141620     IErMin= 2 ErrMin= 1.11D-04
 ErrMax= 1.28D-04  0.00D+00 EMaxC= 1.00D-01 BMatC= 4.70D-07 BMatP= 3.19D-07
 IDIUse=3 WtCom= 4.69D-01 WtEn= 5.31D-01
 Coeff-Com: -0.208D-01 0.562D+00 0.459D+00
 Coeff-En:   0.000D+00 0.586D+00 0.414D+00
 Coeff:     -0.973D-02 0.575D+00 0.435D+00
 Gap=     0.337 Goal=   None    Shift=    0.000
 RMSDP=1.63D-05 MaxDP=1.47D-04 DE= 9.90D-08 OVMax= 1.70D-04

 Cycle   4  Pass 1  IDiag  1:
 E= -76.4206270464211     Delta-E=       -0.000000331249 Rises=F Damp=F
 DIIS: error= 6.71D-06 at cycle   4 NSaved=   4.
 NSaved= 4 IEnMin= 4 EnMin= -76.4206270464211     IErMin= 4 ErrMin= 6.71D-06
 ErrMax= 6.71D-06  0.00D+00 EMaxC= 1.00D-01 BMatC= 6.61D-10 BMatP= 3.19D-07
 IDIUse=1 WtCom= 1.00D+00 WtEn= 0.00D+00
 Coeff-Com: -0.348D-02 0.598D-01 0.628D-01 0.881D+00
 Coeff:     -0.348D-02 0.598D-01 0.628D-01 0.881D+00
 Gap=     0.337 Goal=   None    Shift=    0.000
 RMSDP=7.94D-07 MaxDP=6.07D-06 DE=-3.31D-07 OVMax= 9.50D-06

 Cycle   5  Pass 1  IDiag  1:
 E= -76.4206270469214     Delta-E=       -0.000000000500 Rises=F Damp=F
 DIIS: error= 1.03D-06 at cycle   5 NSaved=   5.
 NSaved= 5 IEnMin= 5 EnMin= -76.4206270469214     IErMin= 5 ErrMin= 1.03D-06
 ErrMax= 1.03D-06  0.00D+00 EMaxC= 1.00D-01 BMatC= 2.43D-11 BMatP= 6.61D-10
 IDIUse=1 WtCom= 1.00D+00 WtEn= 0.00D+00
 Coeff-Com: -0.205D-03-0.405D-02 0.108D-02 0.156D+00 0.847D+00
 Coeff:     -0.205D-03-0.405D-02 0.108D-02 0.156D+00 0.847D+00
 Gap=     0.337 Goal=   None    Shift=    0.000
 RMSDP=1.34D-07 MaxDP=8.82D-07 DE=-5.00D-10 OVMax= 1.32D-06

 Cycle   6  Pass 1  IDiag  1:
 E= -76.4206270469386     Delta-E=       -0.000000000017 Rises=F Damp=F
 DIIS: error= 3.43D-08 at cycle   6 NSaved=   6.
 NSaved= 6 IEnMin= 6 EnMin= -76.4206270469386     IErMin= 6 ErrMin= 3.43D-08
 ErrMax= 3.43D-08  0.00D+00 EMaxC= 1.00D-01 BMatC= 3.91D-14 BMatP= 2.43D-11
 IDIUse=1 WtCom= 1.00D+00 WtEn= 0.00D+00
 Coeff-Com:  0.341D-04-0.256D-03-0.296D-03-0.124D-01-0.366D-01 0.105D+01
 Coeff:      0.341D-04-0.256D-03-0.296D-03-0.124D-01-0.366D-01 0.105D+01
 Gap=     0.337 Goal=   None    Shift=    0.000
 RMSDP=1.42D-08 MaxDP=9.82D-08 DE=-1.73D-11 OVMax= 2.09D-07

 Cycle   7  Pass 1  IDiag  1:
 E= -76.4206270469388     Delta-E=       -0.000000000000 Rises=F Damp=F
 DIIS: error= 5.26D-09 at cycle   7 NSaved=   7.
 NSaved= 7 IEnMin= 7 EnMin= -76.4206270469388     IErMin= 7 ErrMin= 5.26D-09
 ErrMax= 5.26D-09  0.00D+00 EMaxC= 1.00D-01 BMatC= 4.65D-16 BMatP= 3.91D-14
 IDIUse=1 WtCom= 1.00D+00 WtEn= 0.00D+00
 Coeff-Com: -0.177D-05 0.212D-04 0.391D-04 0.505D-03 0.919D-03-0.101D+00
 Coeff-Com:  0.110D+01
 Coeff:     -0.177D-05 0.212D-04 0.391D-04 0.505D-03 0.919D-03-0.101D+00
 Coeff:      0.110D+01
 Gap=     0.337 Goal=   None    Shift=    0.000
 RMSDP=1.17D-09 MaxDP=8.88D-09 DE=-1.28D-13 OVMax= 1.29D-08

 SCF Done:  E(RB3LYP) =  -76.4206270469     A.U. after    7 cycles
            NFock=  7  Conv=0.12D-08     -V/T= 2.0052
 KE= 7.602689528103D+01 PE=-1.990562034022D+02 EE= 3.751936756924D+01
 Leave Link  502 at Tue Jun  8 11:45:27 2021, MaxMem=   134217728 cpu:               2.2 elap:               0.2
 (Enter /APL/ISV/x86_64/gaussian/16/C.01/g16/l701.exe)
 ... and contract with generalized density number  0.
 Compute integral first derivatives.
 Leave Link  701 at Tue Jun  8 11:45:27 2021, MaxMem=   134217728 cpu:               1.3 elap:               0.1
 (Enter /APL/ISV/x86_64/gaussian/16/C.01/g16/l702.exe)
 L702 exits ... SP integral derivatives will be done elsewhere.
 Leave Link  702 at Tue Jun  8 11:45:27 2021, MaxMem=   134217728 cpu:               0.4 elap:               0.0
 (Enter /APL/ISV/x86_64/gaussian/16/C.01/g16/l703.exe)
 Integral derivatives from FoFJK, PRISM(SPDF).
 Compute integral first derivatives, UseDBF=F ICtDFT=           0.
 Calling FoFJK, ICntrl=      2127 FMM=F ISym2X=1 I1Cent= 0 IOpClX= 0 NMat=1 NMatS=1 NMatT=0.
 FoFJK:  IHMeth= 1 ICntrl=    2127 DoSepK=F KAlg= 0 I1Cent=           0 FoldK=F
 IRaf=         0 NMat=       1 IRICut=       1 DoRegI=T DoRafI=F ISym2E= 1 IDoP0=0 IntGTp=1.
 FoFCou: FMM=F IPFlag=           0 FMFlag=      100000 FMFlg1=         800
         NFxFlg=           0 DoJE=F BraDBF=F KetDBF=F FulRan=T
         wScrn=  0.000000 ICntrl=      2127 IOpCl=  0 I1Cent=           0 NGrid=           0
         NMat0=    1 NMatS0=      1 NMatT0=    0 NMatD0=    1 NMtDS0=    0 NMtDT0=    0
 Petite list used in FoFCou.
 Leave Link  703 at Tue Jun  8 11:45:27 2021, MaxMem=   134217728 cpu:               1.9 elap:               0.1
 (Enter /APL/ISV/x86_64/gaussian/16/C.01/g16/l716.exe)
 Dipole        =-2.51453696D-17 2.22044605D-16-7.62514488D-01
 ***** Axes restored to original set *****
 -------------------------------------------------------------------
 Center     Atomic                   Forces (Hartrees/Bohr)
 Number     Number              X              Y              Z
 -------------------------------------------------------------------
      1        8           0.000111944    0.000111944    0.000000000
      2        1          -0.000125120    0.000013176   -0.000000000
      3        1           0.000013176   -0.000125120   -0.000000000
 -------------------------------------------------------------------
 Cartesian Forces:  Max     0.000125120 RMS     0.000079387
 Leave Link  716 at Tue Jun  8 11:45:27 2021, MaxMem=   134217728 cpu:               0.5 elap:               0.1
 (Enter /APL/ISV/x86_64/gaussian/16/C.01/g16/l103.exe)

 GradGradGradGradGradGradGradGradGradGradGradGradGradGradGradGradGradGrad
 Berny optimization.
 Using GEDIIS/GDIIS optimizer.
 FormGI is forming the generalized inverse of G from B-inverse, IUseBI=4.
 Internal  Forces:  Max     0.000125809 RMS     0.000102726
 Search for a local minimum.
 Step number   7 out of a maximum of   20
 All quantities printed in internal units (Hartrees-Bohrs-Radians)
 RMS Force = .10273D-03 SwitMx=.10000D-02 MixMth= 2
 Mixed Optimization -- En-DIIS/RFO-DIIS
 Update second derivatives using D2CorX and points    4    5    6    7
 DE= -1.95D-05 DEPred=-2.02D-05 R= 9.68D-01
 TightC=F SS=  1.41D+00  RLast= 1.54D-02 DXNew= 1.4606D+00 4.6069D-02
 Trust test= 9.68D-01 RLast= 1.54D-02 DXMaxT set to 8.69D-01
 The second derivative matrix:
                          R1        R2        A1
           R1           0.39991
           R2           0.28658   0.39991
           A1           0.04053   0.04053   0.16954
 ITU=  1  1  1  0
 Use linear search instead of GDIIS.
     Eigenvalues ---    0.11333   0.16326   0.69277
 RFO step:  Lambda=-4.68480219D-08 EMin= 1.13327293D-01
 Quartic linear search produced a step of  0.00480.
 Iteration  1 RMS(Cart)=  0.00011603 RMS(Int)=  0.00000001
 Iteration  2 RMS(Cart)=  0.00000001 RMS(Int)=  0.00000000
 ITry= 1 IFail=0 DXMaxC= 1.09D-04 DCOld= 1.00D+10 DXMaxT= 8.69D-01 DXLimC= 3.00D+00 Rises=F
 ClnCor:  largest displacement from symmetrization is 6.08D-14 for atom     3.
 Variable       Old X    -DE/DX   Delta X   Delta X   Delta X     New X
                                 (Linear)    (Quad)   (Total)
    R1        1.83073  -0.00013  -0.00000  -0.00019  -0.00019   1.83054
    R2        1.83073  -0.00013  -0.00000  -0.00019  -0.00019   1.83054
    A1        1.79291   0.00000   0.00007   0.00003   0.00010   1.79301
         Item               Value     Threshold  Converged?
 Maximum Force            0.000126     0.000450     YES
 RMS     Force            0.000103     0.000300     YES
 Maximum Displacement     0.000109     0.001800     YES
 RMS     Displacement     0.000116     0.001200     YES
 Predicted change in Energy=-2.385955D-08
 Optimization completed.
    -- Stationary point found.
                           ----------------------------
                           !   Optimized Parameters   !
                           ! (Angstroms and Degrees)  !
 --------------------------                            --------------------------
 ! Name  Definition              Value          Derivative Info.                !
 --------------------------------------------------------------------------------
 ! R1    R(1,2)                  0.9688         -DE/DX =   -0.0001              !
 ! R2    R(1,3)                  0.9688         -DE/DX =   -0.0001              !
 ! A1    A(2,1,3)              102.726          -DE/DX =    0.0                 !
 --------------------------------------------------------------------------------
 Lowest energy point so far.  Saving SCF results.
 Largest change from initial coordinates is atom    3       0.475 Angstoms.
 GradGradGradGradGradGradGradGradGradGradGradGradGradGradGradGradGradGrad

 Leave Link  103 at Tue Jun  8 11:45:28 2021, MaxMem=   134217728 cpu:               0.1 elap:               0.0
 (Enter /APL/ISV/x86_64/gaussian/16/C.01/g16/l202.exe)
                          Input orientation:                          
 ---------------------------------------------------------------------
 Center     Atomic      Atomic             Coordinates (Angstroms)
 Number     Number       Type             X           Y           Z
 ---------------------------------------------------------------------
      1          8           0        0.214851    0.214851    0.000000
      2          1           0        1.177665    0.107483   -0.000000
      3          1           0        0.107483    1.177665    0.000000
 ---------------------------------------------------------------------
                    Distance matrix (angstroms):
                    1          2          3
     1  O    0.000000
     2  H    0.968782   0.000000
     3  H    0.968782   1.513466   0.000000
 Stoichiometry    H2O
 Framework group  C2V[C2(O),SGV(H2)]
 Deg. of freedom     2
 Full point group                 C2V     NOp   4
 RotChk:  IX=0 Diff= 7.82D-16
 Largest Abelian subgroup         C2V     NOp   4
 Largest concise Abelian subgroup C2      NOp   2
                         Standard orientation:                         
 ---------------------------------------------------------------------
 Center     Atomic      Atomic             Coordinates (Angstroms)
 Number     Number       Type             X           Y           Z
 ---------------------------------------------------------------------
      1          8           0       -0.000000    0.000000    0.120978
      2          1           0       -0.000000    0.756733   -0.483914
      3          1           0       -0.000000   -0.756733   -0.483914
 ---------------------------------------------------------------------
 Rotational constants (GHZ):         771.5988288         437.8414213         279.3341199
 Leave Link  202 at Tue Jun  8 11:45:28 2021, MaxMem=   134217728 cpu:               0.2 elap:               0.0
 (Enter /APL/ISV/x86_64/gaussian/16/C.01/g16/l601.exe)
 Copying SCF densities to generalized density rwf, IOpCl= 0 IROHF=0.

 **********************************************************************

            Population analysis using the SCF Density.

 **********************************************************************

 Orbital symmetries:
       Occupied  (A1) (A1) (B2) (A1) (B1)
       Virtual   (A1) (B2) (B2) (A1) (A1) (B1) (B2) (A1) (A2) (B1)
                 (A1) (B2) (B2) (A1) (B1) (A2) (A1) (A1) (B2)
 The electronic state is 1-A1.
 Alpha  occ. eigenvalues --  -19.12474  -0.99187  -0.50677  -0.36744  -0.28774
 Alpha virt. eigenvalues --    0.04920   0.12514   0.54957   0.61152   0.90387
 Alpha virt. eigenvalues --    0.91812   0.99616   1.19060   1.23636   1.41647
 Alpha virt. eigenvalues --    1.59093   1.66969   2.08974   2.13132   2.92059
 Alpha virt. eigenvalues --    2.94989   3.12413   3.44550   3.73516
          Condensed to atoms (all electrons):
               1          2          3
     1  O    7.561033   0.350866   0.350866
     2  H    0.350866   0.559474  -0.041723
     3  H    0.350866  -0.041723   0.559474
 Mulliken charges:
               1
     1  O   -0.262765
     2  H    0.131383
     3  H    0.131383
 Sum of Mulliken charges =  -0.00000
 Mulliken charges with hydrogens summed into heavy atoms:
               1
     1  O   -0.000000
 Electronic spatial extent (au):  <R**2>=             18.9767
 Charge=             -0.0000 electrons
 Dipole moment (field-independent basis, Debye):
    X=             -0.0000    Y=              0.0000    Z=             -1.9381  Tot=              1.9381
 Quadrupole moment (field-independent basis, Debye-Ang):
   XX=             -7.0003   YY=             -4.3341   ZZ=             -5.8769
   XY=              0.0000   XZ=              0.0000   YZ=              0.0000
 Traceless Quadrupole moment (field-independent basis, Debye-Ang):
   XX=             -1.2632   YY=              1.4030   ZZ=             -0.1397
   XY=              0.0000   XZ=              0.0000   YZ=              0.0000
 Octapole moment (field-independent basis, Debye-Ang**2):
  XXX=              0.0000  YYY=             -0.0000  ZZZ=             -1.0073  XYY=             -0.0000
  XXY=             -0.0000  XXZ=             -0.2447  XZZ=              0.0000  YZZ=             -0.0000
  YYZ=             -1.1186  XYZ=             -0.0000
 Hexadecapole moment (field-independent basis, Debye-Ang**3):
 XXXX=             -4.8377 YYYY=             -6.1519 ZZZZ=             -6.0428 XXXY=             -0.0000
 XXXZ=             -0.0000 YYYX=             -0.0000 YYYZ=              0.0000 ZZZX=             -0.0000
 ZZZY=              0.0000 XXYY=             -2.0930 XXZZ=             -1.8717 YYZZ=             -1.6792
 XXYZ=              0.0000 YYXZ=              0.0000 ZZXY=             -0.0000
 N-N= 9.089313505034D+00 E-N=-1.990562032915D+02  KE= 7.602689528103D+01
 Symmetry A1   KE= 6.789730944723D+01
 Symmetry A2   KE= 1.971247046416D-35
 Symmetry B1   KE= 4.607501149118D+00
 Symmetry B2   KE= 3.522084684681D+00
 No NMR shielding tensors so no spin-rotation constants.
 Leave Link  601 at Tue Jun  8 11:45:28 2021, MaxMem=   134217728 cpu:               1.2 elap:               0.1
 (Enter /APL/ISV/x86_64/gaussian/16/C.01/g16/l9999.exe)
 Unable to Open any file for archive entry.
 1\1\GINC-LEMON\FOpt\RB3LYP\CC-pVDZ\H2O1\YAGI\08-Jun-2021\0\\#P B3LYP/c
 c-pVDZ opt\\B3LYP/cc-pVDZ water\\0,1\O,0.2148511034,0.2148511034,0.\H,
 1.1776654036,0.1074834929,0.\H,0.1074834929,1.1776654036,0.\\Version=E
 S64L-G16RevC.01\State=1-A1\HF=-76.420627\RMSD=1.172e-09\RMSF=7.939e-05
 \Dipole=0.5391792,0.5391792,0.\Quadrupole=0.4695884,0.4695884,-0.93917
 68,-0.5734858,0.,0.\PG=C02V [C2(O1),SGV(H2)]\\@
 The archive entry for this job was punched.


 HERE WE GO......
 SLIDING DOWN THE RAZOR BLADE OF LIFE......
                                 TOM LEHRER
 Job cpu time:       0 days  0 hours  1 minutes 31.7 seconds.
 Elapsed time:       0 days  0 hours  0 minutes  7.9 seconds.
 File lengths (MBytes):  RWF=      6 Int=      0 D2E=      0 Chk=      1 Scr=      1
 Normal termination of Gaussian 16 at Tue Jun  8 11:45:28 2021.

real	0m8.271s
user	1m26.226s
sys	0m5.489s
