B3LYP/cc-pVDZ water                                                     
FOpt      RB3LYP                                                      CC-pVDZ             
Number of atoms                            I                3
Info1-9                                    I   N=           9
          12          12           0           0           0         110
           2          18        -502
Full Title                                 C   N=           2
B3LYP/cc-pVDZ water     
Route                                      C   N=           2
#P B3LYP/cc-pVDZ opt    
Charge                                     I                0
Multiplicity                               I                1
Number of electrons                        I               10
Number of alpha electrons                  I                5
Number of beta electrons                   I                5
Number of basis functions                  I               24
Number of independent functions            I               24
Number of point charges in /Mol/           I                0
Number of translation vectors              I                0
Atomic numbers                             I   N=           3
           8           1           1
Nuclear charges                            R   N=           3
  8.00000000E+00  1.00000000E+00  1.00000000E+00
Current cartesian coordinates              R   N=           9
 -1.54074396E-32  4.61818072E-17  2.28616102E-01 -3.94430453E-31  1.43001790E+00
 -9.14464407E-01 -1.75126685E-16 -1.43001790E+00 -9.14464407E-01
Number of symbols in /Mol/                 I                0
Int Atom Types                             I   N=           3
           0           0           0
Force Field                                I                0
Atom Types                                 C   N=           3
                                    
MM charges                                 R   N=           3
  0.00000000E+00  0.00000000E+00  0.00000000E+00
Integer atomic weights                     I   N=           3
          16           1           1
Real atomic weights                        R   N=           3
  1.59949146E+01  1.00782504E+00  1.00782504E+00
Atom fragment info                         I   N=           3
           0           0           0
Atom residue num                           I   N=           3
           0           0           0
Nuclear spins                              I   N=           3
           0           1           1
Nuclear ZEff                               R   N=           3
 -5.60000000E+00 -1.00000000E+00 -1.00000000E+00
Nuclear ZNuc                               R   N=           3
  8.00000000E+00  1.00000000E+00  1.00000000E+00
Nuclear QMom                               R   N=           3
  0.00000000E+00  0.00000000E+00  0.00000000E+00
Nuclear GFac                               R   N=           3
  0.00000000E+00  2.79284600E+00  2.79284600E+00
MicOpt                                     I   N=           3
          -1          -1          -1
Number of residues                         I                0
Number of secondary structures             I                0
Redundant internal dimensions              I   N=           4
           3           2           1           0
Redundant internal coordinate indices      I   N=          12
           1           2           0           0           1           3
           0           0           2           1           3           0
Redundant internal coordinates             R   N=           3
  1.83073326E+00  1.83073326E+00  1.79290738E+00
ZRed-IntVec                                I   N=           3
           0           0           0
ZRed-FPVec                                 R   N=           3
  0.00000000E+00  0.00000000E+00  0.00000000E+00
ZRed-Constraint1                           R   N=           3
  2.83458919E+00  2.83458919E+00  1.57079633E+00
ZRed-Constraint2                           R   N=           3
  0.00000000E+00  0.00000000E+00  0.00000000E+00
SymInf integers                            I   N=          26
           2           4           1           1           1          -1
          -1           1          -1           1           1           1
          -1           1           0           0           0           0
           0           0           0           0           0           0
           0           0
RotTr to input orientation                 R   N=          12
 -1.73191211E-16  2.59786817E-16 -1.00000000E+00  7.07106781E-01 -7.07106781E-01
 -3.06161700E-16 -7.07106781E-01 -7.07106781E-01 -6.12323400E-17  5.67665739E-01
  5.67665739E-01  1.52802283E-16
Number of contracted shells                I               12
Number of primitive shells                 I               30
Pure/Cartesian d shells                    I                0
Pure/Cartesian f shells                    I                0
Highest angular momentum                   I                2
Largest degree of contraction              I                7
Shell types                                I   N=          12
           0           0           0           1           1          -2
           0           0           1           0           0           1
Number of primitives per shell             I   N=          12
           7           7           1           3           1           1
           3           1           1           3           1           1
Shell to atom map                          I   N=          12
           1           1           1           1           1           1
           2           2           2           3           3           3
Primitive exponents                        R   N=          30
  1.17200000E+04  1.75900000E+03  4.00800000E+02  1.13700000E+02  3.70300000E+01
  1.32700000E+01  5.02500000E+00  1.17200000E+04  4.00800000E+02  1.13700000E+02
  3.70300000E+01  1.32700000E+01  5.02500000E+00  1.01300000E+00  3.02300000E-01
  1.77000000E+01  3.85400000E+00  1.04600000E+00  2.75300000E-01  1.18500000E+00
  1.30100000E+01  1.96200000E+00  4.44600000E-01  1.22000000E-01  7.27000000E-01
  1.30100000E+01  1.96200000E+00  4.44600000E-01  1.22000000E-01  7.27000000E-01
Contraction coefficients                   R   N=          30
  7.11864434E-04  5.48520199E-03  2.79099296E-02  1.05133208E-01  2.84002490E-01
  4.51673946E-01  2.73208126E-01  7.69030046E-06  3.13484579E-04 -2.96614853E-03
 -1.08753543E-02 -1.20753817E-01 -1.06275264E-01  1.09597548E+00  1.00000000E+00
  6.26791663E-02  3.33536566E-01  7.41239642E-01  1.00000000E+00  1.00000000E+00
  3.34987264E-02  2.34800801E-01  8.13682958E-01  1.00000000E+00  1.00000000E+00
  3.34987264E-02  2.34800801E-01  8.13682958E-01  1.00000000E+00  1.00000000E+00
Coordinates of each shell                  R   N=          36
  0.00000000E+00  2.14769937E-18  2.28616102E-01  0.00000000E+00  2.14769937E-18
  2.28616102E-01  0.00000000E+00  2.14769937E-18  2.28616102E-01  0.00000000E+00
  2.14769937E-18  2.28616102E-01  0.00000000E+00  2.14769937E-18  2.28616102E-01
  0.00000000E+00  2.14769937E-18  2.28616102E-01 -4.93038066E-32  1.43001790E+00
 -9.14464407E-01 -4.93038066E-32  1.43001790E+00 -9.14464407E-01 -4.93038066E-32
  1.43001790E+00 -9.14464407E-01 -1.75126685E-16 -1.43001790E+00 -9.14464407E-01
 -1.75126685E-16 -1.43001790E+00 -9.14464407E-01 -1.75126685E-16 -1.43001790E+00
 -9.14464407E-01
Num ILSW                                   I              100
ILSW                                       I   N=         100
           0           0           0           1           2           0
           0           0           0           0         402          -1
           5           0           0           0           2           0
           0           0           0           0           1           0
           1           0           0           0           0           0
           0           0      100000           0          -1           0
           0           0           0           0           0           0
           0           0           0           1           0           0
           0 -2000000000           1           0           0           0
           0           0           4          52           0           0
           0           0           5           0           0           0
           0           0           0           3           0           1
           0           0           0           0           0           0
           0           0           0           0           0           0
           0           0           0           0           0           0
           0           0           0           0           0           0
           0           0           0           0
Num RLSW                                   I               52
RLSW                                       R   N=          52
  8.00000000E-01  7.20000000E-01  1.00000000E+00  8.10000000E-01  2.00000000E-01
  0.00000000E+00  0.00000000E+00  1.00000000E+00  0.00000000E+00  0.00000000E+00
  0.00000000E+00  0.00000000E+00  1.00000000E+00  0.00000000E+00  0.00000000E+00
  0.00000000E+00  0.00000000E+00  1.00000000E+00  0.00000000E+00  0.00000000E+00
  0.00000000E+00  0.00000000E+00  1.00000000E+00  0.00000000E+00  0.00000000E+00
  0.00000000E+00  0.00000000E+00  1.00000000E+00  0.00000000E+00  0.00000000E+00
  0.00000000E+00  0.00000000E+00  1.00000000E+00  0.00000000E+00  0.00000000E+00
  0.00000000E+00  0.00000000E+00  0.00000000E+00  1.00000000E+00  1.00000000E+00
  0.00000000E+00  1.00000000E+00  0.00000000E+00  0.00000000E+00  0.00000000E+00
  0.00000000E+00  0.00000000E+00  0.00000000E+00  0.00000000E+00  0.00000000E+00
  0.00000000E+00  0.00000000E+00
MxBond                                     I                2
NBond                                      I   N=           3
           2           1           1
IBond                                      I   N=           6
           2           3           1           0           1           0
RBond                                      R   N=           6
  1.00000000E-01  1.00000000E-01  1.00000000E-01  0.00000000E+00  1.00000000E-01
  0.00000000E+00
Virial Ratio                               R      2.005178848412154E+00
SCF Energy                                 R     -7.642062704693875E+01
Total Energy                               R     -7.642062704693875E+01
RMS Force                                  R      7.938657701853522E-05
RMS Density                                R      1.171713786795669E-09
Job Status                                 I                1
Nuclear derivative order                   I                1
External E-field                           R   N=          35
  0.00000000E+00  0.00000000E+00  0.00000000E+00  0.00000000E+00  0.00000000E+00
  0.00000000E+00  0.00000000E+00  0.00000000E+00  0.00000000E+00  0.00000000E+00
  0.00000000E+00  0.00000000E+00  0.00000000E+00  0.00000000E+00  0.00000000E+00
  0.00000000E+00  0.00000000E+00  0.00000000E+00  0.00000000E+00  0.00000000E+00
  0.00000000E+00  0.00000000E+00  0.00000000E+00  0.00000000E+00  0.00000000E+00
  0.00000000E+00  0.00000000E+00  0.00000000E+00  0.00000000E+00  0.00000000E+00
  0.00000000E+00  0.00000000E+00  0.00000000E+00  0.00000000E+00  0.00000000E+00
IOpCl                                      I                0
IROHF                                      I                0
Alpha Orbital Energies                     R   N=          24
 -1.91247407E+01 -9.91865868E-01 -5.06770929E-01 -3.67438369E-01 -2.87739459E-01
  4.91951360E-02  1.25144899E-01  5.49567884E-01  6.11516718E-01  9.03873061E-01
  9.18119621E-01  9.96158893E-01  1.19060495E+00  1.23636169E+00  1.41647274E+00
  1.59092582E+00  1.66969042E+00  2.08973602E+00  2.13131993E+00  2.92058532E+00
  2.94988693E+00  3.12413399E+00  3.44550478E+00  3.73515752E+00
Alpha MO coefficients                      R   N=         576
  9.96421492E-01  2.16975688E-02 -6.93955375E-03  0.00000000E+00  0.00000000E+00
 -1.96400009E-03  0.00000000E+00  0.00000000E+00  8.16173830E-04  1.27667130E-05
  0.00000000E+00  0.00000000E+00 -3.94365396E-04  0.00000000E+00 -3.70395255E-04
  9.84546890E-04  0.00000000E+00  8.95021782E-04 -8.41837434E-04 -3.70395255E-04
  9.84546890E-04  0.00000000E+00 -8.95021782E-04 -8.41837434E-04 -2.06213399E-01
  4.42329517E-01  3.53460352E-01  0.00000000E+00  0.00000000E+00 -1.15077006E-01
  0.00000000E+00  0.00000000E+00  7.14891393E-03  2.48895093E-03  0.00000000E+00
  0.00000000E+00 -4.39559660E-03  0.00000000E+00  2.02705280E-01  1.54221751E-02
  0.00000000E+00 -3.64796147E-02  1.93320511E-02  2.02705280E-01  1.54221751E-02
  0.00000000E+00  3.64796147E-02  1.93320511E-02  0.00000000E+00  0.00000000E+00
  0.00000000E+00  0.00000000E+00  5.03617879E-01  0.00000000E+00  0.00000000E+00
  2.02114358E-01  0.00000000E+00  0.00000000E+00  0.00000000E+00 -2.33631607E-02
  0.00000000E+00  0.00000000E+00  3.27688168E-01  1.13540252E-01  0.00000000E+00
 -1.50590282E-02  2.82583555E-02 -3.27688168E-01 -1.13540252E-01  0.00000000E+00
 -1.50590282E-02 -2.82583555E-02 -8.32209600E-02  1.67053356E-01  3.81877942E-01
  0.00000000E+00  0.00000000E+00  5.43583665E-01  0.00000000E+00  0.00000000E+00
  3.48307848E-01 -1.84481203E-02  0.00000000E+00  0.00000000E+00  1.89399535E-03
  0.00000000E+00 -2.04229711E-01 -5.01626948E-02  0.00000000E+00  2.50481989E-02
  1.44898907E-02 -2.04229711E-01 -5.01626948E-02  0.00000000E+00 -2.50481989E-02
  1.44898907E-02  0.00000000E+00  0.00000000E+00  0.00000000E+00  6.36807342E-01
  0.00000000E+00  0.00000000E+00  4.88808072E-01  0.00000000E+00  0.00000000E+00
  0.00000000E+00 -1.92949856E-02  0.00000000E+00  0.00000000E+00  0.00000000E+00
  0.00000000E+00  0.00000000E+00  3.26702386E-02  0.00000000E+00  0.00000000E+00
  0.00000000E+00  0.00000000E+00  3.26702386E-02  0.00000000E+00  0.00000000E+00
 -8.79439449E-02  1.26509401E-01  8.92950444E-01  0.00000000E+00  0.00000000E+00
 -2.50847407E-01  0.00000000E+00  0.00000000E+00 -3.18712474E-01  8.66186377E-03
  0.00000000E+00  0.00000000E+00 -4.10292279E-03  0.00000000E+00 -1.07788951E-01
 -7.63963752E-01  0.00000000E+00 -2.90689015E-03 -3.93109282E-03 -1.07788951E-01
 -7.63963752E-01  0.00000000E+00  2.90689015E-03 -3.93109282E-03  0.00000000E+00
  0.00000000E+00  0.00000000E+00  0.00000000E+00 -3.71366477E-01  0.00000000E+00
  0.00000000E+00 -6.12916719E-01  0.00000000E+00  0.00000000E+00  0.00000000E+00
  1.00848212E-02  0.00000000E+00  0.00000000E+00  1.05602601E-01  1.30390310E+00
  0.00000000E+00 -1.91401282E-03 -2.70802654E-03 -1.05602601E-01 -1.30390310E+00
  0.00000000E+00 -1.91401282E-03  2.70802654E-03  0.00000000E+00  0.00000000E+00
  0.00000000E+00  0.00000000E+00 -2.88574348E-01  0.00000000E+00  0.00000000E+00
 -3.23567450E-01  0.00000000E+00  0.00000000E+00  0.00000000E+00 -1.04629204E-01
  0.00000000E+00  0.00000000E+00  9.39912466E-01 -8.71248399E-01  0.00000000E+00
  5.86465308E-02 -1.30105564E-01 -9.39912466E-01  8.71248399E-01  0.00000000E+00
  5.86465308E-02  1.30105564E-01  4.22603522E-02 -2.48152072E-01  3.54361369E-01
  0.00000000E+00  0.00000000E+00  3.89503045E-01  0.00000000E+00  0.00000000E+00
 -6.50431292E-02  2.57282921E-03  0.00000000E+00  0.00000000E+00 -9.53880078E-02
  0.00000000E+00  8.02937136E-01 -6.15356173E-01  0.00000000E+00  2.49089873E-01
 -6.01402310E-02  8.02937136E-01 -6.15356173E-01  0.00000000E+00 -2.49089873E-01
 -6.01402310E-02  5.41569235E-02 -1.60058698E-01 -6.13210294E-01  0.00000000E+00
  0.00000000E+00 -7.44629125E-01  0.00000000E+00  0.00000000E+00  1.24499137E+00
 -1.47562395E-02  0.00000000E+00  0.00000000E+00 -1.97493056E-02  0.00000000E+00
  5.46079939E-01  7.59375275E-02  0.00000000E+00 -2.51990784E-02  2.38255378E-01
  5.46079939E-01  7.59375275E-02  0.00000000E+00  2.51990784E-02  2.38255378E-01
  0.00000000E+00  0.00000000E+00  0.00000000E+00 -9.64033157E-01  0.00000000E+00
  0.00000000E+00  1.00355699E+00  0.00000000E+00  0.00000000E+00  0.00000000E+00
  1.84719936E-03  0.00000000E+00  0.00000000E+00  0.00000000E+00  0.00000000E+00
  0.00000000E+00  3.73353354E-02  0.00000000E+00  0.00000000E+00  0.00000000E+00
  0.00000000E+00  3.73353354E-02  0.00000000E+00  0.00000000E+00  0.00000000E+00
  0.00000000E+00  0.00000000E+00  0.00000000E+00 -7.55217764E-01  0.00000000E+00
  0.00000000E+00  1.75449407E+00  0.00000000E+00  0.00000000E+00  0.00000000E+00
 -2.09869722E-02  0.00000000E+00  0.00000000E+00 -3.64046813E-01 -8.35702433E-01
  0.00000000E+00  2.55824165E-01 -1.37878769E-01  3.64046813E-01  8.35702433E-01
  0.00000000E+00  2.55824165E-01  1.37878769E-01  3.85315900E-02 -5.24509848E-01
  4.53847861E-01  0.00000000E+00  0.00000000E+00 -1.33137330E-01  0.00000000E+00
  0.00000000E+00  7.53922319E-01  1.26991651E-01  0.00000000E+00  0.00000000E+00
  1.72959211E-02  0.00000000E+00  3.44662789E-01 -2.02430185E-01  0.00000000E+00
 -3.61029464E-01 -5.13756799E-01  3.44662789E-01 -2.02430185E-01  0.00000000E+00
  3.61029464E-01 -5.13756799E-01  0.00000000E+00  0.00000000E+00  0.00000000E+00
  0.00000000E+00  0.00000000E+00  0.00000000E+00  0.00000000E+00  0.00000000E+00
  0.00000000E+00  0.00000000E+00  0.00000000E+00  0.00000000E+00  0.00000000E+00
  1.40754866E-01  0.00000000E+00  0.00000000E+00  6.83558375E-01  0.00000000E+00
  0.00000000E+00  0.00000000E+00  0.00000000E+00 -6.83558375E-01  0.00000000E+00
  0.00000000E+00  0.00000000E+00  0.00000000E+00  0.00000000E+00  2.02742766E-02
  0.00000000E+00  0.00000000E+00 -6.59613174E-01  0.00000000E+00  0.00000000E+00
  0.00000000E+00 -1.70752189E-01  0.00000000E+00  0.00000000E+00  0.00000000E+00
  0.00000000E+00  0.00000000E+00  7.57935824E-01  0.00000000E+00  0.00000000E+00
  0.00000000E+00  0.00000000E+00  7.57935824E-01  0.00000000E+00  0.00000000E+00
  5.73152467E-04 -1.62692513E+00  3.00974129E+00  0.00000000E+00  0.00000000E+00
 -6.25356389E-02  0.00000000E+00  0.00000000E+00 -9.95142081E-01 -1.18069803E-01
  0.00000000E+00  0.00000000E+00  1.12050504E-01  0.00000000E+00 -8.00254185E-01
 -3.99164706E-01  0.00000000E+00  3.46175840E-01  1.47096512E-02 -8.00254185E-01
 -3.99164706E-01  0.00000000E+00 -3.46175840E-01  1.47096512E-02  0.00000000E+00
  0.00000000E+00  0.00000000E+00  0.00000000E+00  1.38856425E-03  0.00000000E+00
  0.00000000E+00  8.94721685E-01  0.00000000E+00  0.00000000E+00  0.00000000E+00
  3.36650777E-02  0.00000000E+00  0.00000000E+00 -3.70727370E-01 -1.06733595E-01
  0.00000000E+00 -4.51350008E-01 -7.08246960E-01  3.70727370E-01  1.06733595E-01
  0.00000000E+00 -4.51350008E-01  7.08246960E-01  0.00000000E+00  0.00000000E+00
  0.00000000E+00  0.00000000E+00  7.62037861E-01  0.00000000E+00  0.00000000E+00
  1.76387289E-01  0.00000000E+00  0.00000000E+00  0.00000000E+00  1.34543623E-01
  0.00000000E+00  0.00000000E+00 -2.52683534E-01 -3.84074363E-01  0.00000000E+00
  7.44098429E-01 -5.39774901E-01  2.52683534E-01  3.84074363E-01  0.00000000E+00
  7.44098429E-01  5.39774901E-01 -5.58029104E-02  6.38601010E-01  9.03726940E-01
  0.00000000E+00  0.00000000E+00 -6.35749437E-01  0.00000000E+00  0.00000000E+00
 -2.25413781E-01 -4.70279007E-02  0.00000000E+00  0.00000000E+00  2.13574362E-01
  0.00000000E+00 -4.67896707E-01 -1.91401566E-01  0.00000000E+00  7.43796461E-01
 -5.63938889E-01 -4.67896707E-01 -1.91401566E-01  0.00000000E+00 -7.43796461E-01
 -5.63938889E-01  0.00000000E+00  0.00000000E+00  0.00000000E+00  1.98944957E-02
  0.00000000E+00  0.00000000E+00 -3.14723193E-01  0.00000000E+00  0.00000000E+00
  0.00000000E+00  1.03998729E+00  0.00000000E+00  0.00000000E+00  0.00000000E+00
  0.00000000E+00  0.00000000E+00  4.00143482E-01  0.00000000E+00  0.00000000E+00
  0.00000000E+00  0.00000000E+00  4.00143482E-01  0.00000000E+00  0.00000000E+00
  0.00000000E+00  0.00000000E+00  0.00000000E+00  0.00000000E+00  0.00000000E+00
  0.00000000E+00  0.00000000E+00  0.00000000E+00  0.00000000E+00  0.00000000E+00
  0.00000000E+00  0.00000000E+00  0.00000000E+00  1.05931865E+00  0.00000000E+00
  0.00000000E+00 -3.66742786E-01  0.00000000E+00  0.00000000E+00  0.00000000E+00
  0.00000000E+00  3.66742786E-01  0.00000000E+00  0.00000000E+00 -1.00146358E-02
 -1.49645756E-01  4.13773481E-01  0.00000000E+00  0.00000000E+00  1.86159862E-02
  0.00000000E+00  0.00000000E+00 -4.81629192E-01  1.06381331E+00  0.00000000E+00
  0.00000000E+00  2.67577383E-01  0.00000000E+00 -2.30348617E-01 -2.33735283E-02
  0.00000000E+00  3.14039744E-01  3.38316532E-01 -2.30348617E-01 -2.33735283E-02
  0.00000000E+00 -3.14039744E-01  3.38316532E-01 -6.41892186E-02 -2.49528854E-01
  2.30210085E+00  0.00000000E+00  0.00000000E+00 -3.75759362E-01  0.00000000E+00
  0.00000000E+00 -9.83378366E-01  2.38695728E-01  0.00000000E+00  0.00000000E+00
 -1.13144011E+00  0.00000000E+00 -1.21843927E+00 -2.05477301E-01  0.00000000E+00
  6.30875743E-01 -4.77844461E-01 -1.21843927E+00 -2.05477301E-01  0.00000000E+00
 -6.30875743E-01 -4.77844461E-01  0.00000000E+00  0.00000000E+00  0.00000000E+00
  0.00000000E+00 -4.29942978E-01  0.00000000E+00  0.00000000E+00 -1.14606575E+00
  0.00000000E+00  0.00000000E+00  0.00000000E+00  1.32470780E+00  0.00000000E+00
  0.00000000E+00  1.04743395E+00  3.07491677E-01  0.00000000E+00 -5.99616479E-01
  5.14458437E-01 -1.04743395E+00 -3.07491677E-01  0.00000000E+00 -5.99616479E-01
 -5.14458437E-01
Orthonormal basis                          R   N=         576
  5.25676664E-02  1.86876950E-01  2.34004558E-01  0.00000000E+00  0.00000000E+00
 -6.95632962E-02  0.00000000E+00  0.00000000E+00 -1.06636644E-01  1.00829358E-02
  0.00000000E+00  0.00000000E+00 -1.92955345E-02  0.00000000E+00  1.65206275E-01
  1.98372355E-01  0.00000000E+00 -9.82265524E-02  3.51095172E-02  1.65206275E-01
  1.98372355E-01  0.00000000E+00  9.82265524E-02  3.51095172E-02  9.68591804E-02
  2.08710278E-01  1.88330382E-01  0.00000000E+00  0.00000000E+00  2.93267625E-01
  0.00000000E+00  0.00000000E+00  3.85720226E-01 -1.58967618E-01  0.00000000E+00
  0.00000000E+00 -8.74211859E-02  0.00000000E+00 -6.53720860E-02  3.12456309E-03
  0.00000000E+00  1.22906594E-01  2.53337459E-01 -6.53720860E-02  3.12456309E-03
  0.00000000E+00 -1.22906594E-01  2.53337459E-01 -1.63696841E-01 -2.35377148E-01
 -3.79997230E-02  0.00000000E+00  0.00000000E+00  2.03131874E-01  0.00000000E+00
  0.00000000E+00 -3.17485181E-02 -1.32450753E-01  0.00000000E+00  0.00000000E+00
 -2.45302124E-02  0.00000000E+00  1.72737864E-01  2.51146711E-01  0.00000000E+00
  3.76369905E-01 -1.37938124E-01  1.72737864E-01  2.51146711E-01  0.00000000E+00
 -3.76369905E-01 -1.37938124E-01  8.36323558E-02  9.67602793E-02  1.23149378E-01
  0.00000000E+00  0.00000000E+00  3.79694298E-01  0.00000000E+00  0.00000000E+00
  2.34220122E-01  4.47054462E-01  0.00000000E+00  0.00000000E+00  3.99534873E-01
  0.00000000E+00 -6.99526610E-02  8.10576708E-02  0.00000000E+00 -6.93434287E-02
 -2.75907868E-01 -6.99526610E-02  8.10576708E-02  0.00000000E+00  6.93434287E-02
 -2.75907868E-01  2.00462306E-01  5.57871460E-02  2.49758811E-02  0.00000000E+00
  0.00000000E+00 -1.38425778E-01  0.00000000E+00  0.00000000E+00 -9.80048524E-02
 -5.77755881E-01  0.00000000E+00  0.00000000E+00  7.45273453E-01  0.00000000E+00
 -7.30587966E-02  1.43941902E-02  0.00000000E+00  3.95908098E-02 -6.77184291E-03
 -7.30587966E-02  1.43941902E-02  0.00000000E+00 -3.95908098E-02 -6.77184291E-03
  9.68515644E-01 -9.71932051E-02 -1.17891755E-01  0.00000000E+00  0.00000000E+00
  2.71044639E-02  0.00000000E+00  0.00000000E+00 -1.17497988E-01  5.47862976E-02
  0.00000000E+00  0.00000000E+00 -2.20455984E-01  0.00000000E+00  5.30265217E-02
 -2.04033760E-02  0.00000000E+00  1.19814419E-01 -9.25724750E-02  5.30265217E-02
 -2.04033760E-02  0.00000000E+00 -1.19814419E-01 -9.25724750E-02 -6.58630546E-02
  1.43059963E-01 -1.75869665E-02  0.00000000E+00  0.00000000E+00  6.82923169E-01
  0.00000000E+00  0.00000000E+00 -2.42438460E-01 -6.62488749E-01  0.00000000E+00
  0.00000000E+00 -3.83960974E-01  0.00000000E+00 -3.74254670E-02 -7.74962132E-02
  0.00000000E+00 -3.57146198E-01 -3.60054405E-01 -3.74254670E-02 -7.74962132E-02
  0.00000000E+00  3.57146198E-01 -3.60054405E-01  1.10578415E-01 -5.88412500E-01
  6.32841969E-02  0.00000000E+00  0.00000000E+00 -4.64294795E-01  0.00000000E+00
  0.00000000E+00  7.27702993E-01 -2.86880541E-01  0.00000000E+00  0.00000000E+00
 -2.66341473E-01  0.00000000E+00 -3.78959583E-01  5.29869357E-01  0.00000000E+00
 -3.05411011E-01 -1.79643377E-01 -3.78959583E-01  5.29869357E-01  0.00000000E+00
  3.05411011E-01 -1.79643377E-01  8.08083309E-02 -7.41235857E-01 -2.41027944E-01
  0.00000000E+00  0.00000000E+00  7.40419583E-01  0.00000000E+00  0.00000000E+00
 -7.04756418E-01  2.41142837E-01  0.00000000E+00  0.00000000E+00  2.47903552E-01
  0.00000000E+00 -2.75551516E-01  3.91836421E-01  0.00000000E+00 -2.93922260E-01
  6.72517229E-01 -2.75551516E-01  3.91836421E-01  0.00000000E+00  2.93922260E-01
  6.72517229E-01  8.76971056E-02 -1.25302404E+00  6.77932756E-01  0.00000000E+00
  0.00000000E+00  2.02735402E-01  0.00000000E+00  0.00000000E+00  5.72452388E-01
 -1.49468528E-01  0.00000000E+00  0.00000000E+00  2.82656878E-01  0.00000000E+00
  8.88797773E-01 -5.61626468E-01  0.00000000E+00 -3.77057248E-01  1.15334674E-01
  8.88797773E-01 -5.61626468E-01  0.00000000E+00  3.77057248E-01  1.15334674E-01
 -9.29945360E-02 -1.04866567E+00  4.05937585E+00  0.00000000E+00  0.00000000E+00
 -2.78830550E-01  0.00000000E+00  0.00000000E+00 -1.71276354E+00  2.00848583E-01
  0.00000000E+00  0.00000000E+00 -5.36431522E-01  0.00000000E+00 -1.57091104E+00
 -6.20629169E-01  0.00000000E+00  8.53319708E-01 -4.35077745E-01 -1.57091104E+00
 -6.20629169E-01  0.00000000E+00 -8.53319708E-01 -4.35077745E-01  0.00000000E+00
  0.00000000E+00  0.00000000E+00  0.00000000E+00  0.00000000E+00  0.00000000E+00
  0.00000000E+00  0.00000000E+00  0.00000000E+00  0.00000000E+00  0.00000000E+00
  0.00000000E+00  0.00000000E+00  6.38171911E-01  0.00000000E+00  0.00000000E+00
  4.18914266E-01  0.00000000E+00  0.00000000E+00  0.00000000E+00  0.00000000E+00
 -4.18914266E-01  0.00000000E+00  0.00000000E+00  0.00000000E+00  0.00000000E+00
  0.00000000E+00  0.00000000E+00  0.00000000E+00  0.00000000E+00  0.00000000E+00
  0.00000000E+00  0.00000000E+00  0.00000000E+00  0.00000000E+00  0.00000000E+00
  0.00000000E+00 -8.57149076E-01  0.00000000E+00  0.00000000E+00  6.52888322E-01
  0.00000000E+00  0.00000000E+00  0.00000000E+00  0.00000000E+00 -6.52888322E-01
  0.00000000E+00  0.00000000E+00  0.00000000E+00  0.00000000E+00  0.00000000E+00
  3.59532877E-01  0.00000000E+00  0.00000000E+00  4.41523604E-01  0.00000000E+00
  0.00000000E+00  0.00000000E+00 -1.24714736E-01  0.00000000E+00  0.00000000E+00
  0.00000000E+00  0.00000000E+00  0.00000000E+00  2.98678251E-01  0.00000000E+00
  0.00000000E+00  0.00000000E+00  0.00000000E+00  2.98678251E-01  0.00000000E+00
  0.00000000E+00  0.00000000E+00  0.00000000E+00  0.00000000E+00  3.48433177E-01
  0.00000000E+00  0.00000000E+00  2.16850744E-01  0.00000000E+00  0.00000000E+00
  0.00000000E+00  8.15426381E-01  0.00000000E+00  0.00000000E+00  0.00000000E+00
  0.00000000E+00  0.00000000E+00 -1.99750431E-01  0.00000000E+00  0.00000000E+00
  0.00000000E+00  0.00000000E+00 -1.99750431E-01  0.00000000E+00  0.00000000E+00
  0.00000000E+00  0.00000000E+00  0.00000000E+00  8.62283545E-01  0.00000000E+00
  0.00000000E+00 -2.29466982E-01  0.00000000E+00  0.00000000E+00  0.00000000E+00
 -5.33135490E-01  0.00000000E+00  0.00000000E+00  0.00000000E+00  0.00000000E+00
  0.00000000E+00 -4.60686449E-01  0.00000000E+00  0.00000000E+00  0.00000000E+00
  0.00000000E+00 -4.60686449E-01  0.00000000E+00  0.00000000E+00  0.00000000E+00
  0.00000000E+00  0.00000000E+00 -5.84369640E-01  0.00000000E+00  0.00000000E+00
  1.21884279E+00  0.00000000E+00  0.00000000E+00  0.00000000E+00 -3.82620149E-01
  0.00000000E+00  0.00000000E+00  0.00000000E+00  0.00000000E+00  0.00000000E+00
 -6.29048372E-01  0.00000000E+00  0.00000000E+00  0.00000000E+00  0.00000000E+00
 -6.29048372E-01  0.00000000E+00  0.00000000E+00  0.00000000E+00  0.00000000E+00
  0.00000000E+00  0.00000000E+00  3.02292146E-01  0.00000000E+00  0.00000000E+00
  4.02164052E-01  0.00000000E+00  0.00000000E+00  0.00000000E+00 -7.66002890E-02
  0.00000000E+00  0.00000000E+00  2.28719691E-01  1.25615224E-01  0.00000000E+00
  1.72268473E-02  1.39323810E-01 -2.28719691E-01 -1.25615224E-01  0.00000000E+00
  1.72268473E-02 -1.39323810E-01  0.00000000E+00  0.00000000E+00  0.00000000E+00
  0.00000000E+00 -3.65817058E-01  0.00000000E+00  0.00000000E+00  1.51014061E-01
  0.00000000E+00  0.00000000E+00  0.00000000E+00  2.85000904E-01  0.00000000E+00
  0.00000000E+00  1.97647630E-01  1.81538607E-01  0.00000000E+00  3.75877654E-01
 -2.77367742E-01 -1.97647630E-01 -1.81538607E-01  0.00000000E+00  3.75877654E-01
  2.77367742E-01  0.00000000E+00  0.00000000E+00  0.00000000E+00  0.00000000E+00
  2.20622106E-01  0.00000000E+00  0.00000000E+00  7.50513511E-02  0.00000000E+00
  0.00000000E+00  0.00000000E+00  7.52450619E-01  0.00000000E+00  0.00000000E+00
 -2.20014243E-01 -4.64724565E-02  0.00000000E+00  1.27091456E-01  2.46556403E-01
  2.20014243E-01  4.64724565E-02  0.00000000E+00  1.27091456E-01 -2.46556403E-01
  0.00000000E+00  0.00000000E+00  0.00000000E+00  0.00000000E+00 -4.86037998E-01
  0.00000000E+00  0.00000000E+00 -3.88667034E-02  0.00000000E+00  0.00000000E+00
  0.00000000E+00 -4.09074483E-01  0.00000000E+00  0.00000000E+00 -8.08835352E-02
 -1.52529341E-02  0.00000000E+00  3.95796397E-01  5.68516266E-01  8.08835352E-02
  1.52529341E-02  0.00000000E+00  3.95796397E-01 -5.68516266E-01  0.00000000E+00
  0.00000000E+00  0.00000000E+00  0.00000000E+00  1.05353123E+00  0.00000000E+00
  0.00000000E+00 -8.06328464E-01  0.00000000E+00  0.00000000E+00  0.00000000E+00
 -3.13615990E-01  0.00000000E+00  0.00000000E+00  1.10998201E-01 -1.85179360E-01
  0.00000000E+00  7.01124498E-01 -1.67342373E-01 -1.10998201E-01  1.85179360E-01
  0.00000000E+00  7.01124498E-01  1.67342373E-01  0.00000000E+00  0.00000000E+00
  0.00000000E+00  0.00000000E+00  3.88661120E-01  0.00000000E+00  0.00000000E+00