B3LYP/cc-pVDZ imidazole                                                 
FOpt      RB3LYP                                                      CC-pVDZ             
Number of atoms                            I                9
Info1-9                                    I   N=           9
          18          18           0           0           0         110
           2          18        -502
Charge                                     I                0
Multiplicity                               I                1
Number of electrons                        I               36
Number of alpha electrons                  I               18
Number of beta electrons                   I               18
Number of basis functions                  I               90
Number of independent functions            I               90
Number of point charges in /Mol/           I                0
Number of translation vectors              I                0
Atomic numbers                             I   N=           9
           6           6           6           7           1           1
           1           1           7
Nuclear charges                            R   N=           9
  6.00000000E+00  6.00000000E+00  6.00000000E+00  7.00000000E+00  1.00000000E+00
  1.00000000E+00  1.00000000E+00  1.00000000E+00  7.00000000E+00
Current cartesian coordinates              R   N=          27
  1.85226527E+00 -1.05154730E+00 -1.76517492E-04 -2.15786094E+00 -5.03215466E-01
 -1.04277601E-05 -1.12531892E+00  1.88487733E+00  1.30596843E-04  1.45469946E+00
  1.50302422E+00  1.17608402E-04  2.79972049E+00  2.86201756E+00  3.54747876E-04
  3.73942033E+00 -1.86914224E+00 -3.07254199E-04 -4.14937993E+00 -1.01450282E+00
 -3.36103096E-05 -1.95530492E+00  3.76138258E+00  2.53525103E-04 -2.90266379E-01
 -2.32023029E+00 -1.07510976E-04
Force Field                                I                0
Int Atom Types                             I   N=           9
           0           0           0           0           0           0
           0           0           0
MM charges                                 R   N=           9
  0.00000000E+00  0.00000000E+00  0.00000000E+00  0.00000000E+00  0.00000000E+00
  0.00000000E+00  0.00000000E+00  0.00000000E+00  0.00000000E+00
Integer atomic weights                     I   N=           9
          12          12          12          14           1           1
           1           1          14
Real atomic weights                        R   N=           9
  1.20000000E+01  1.20000000E+01  1.20000000E+01  1.40030740E+01  1.00782504E+00
  1.00782504E+00  1.00782504E+00  1.00782504E+00  1.40030740E+01
Atom fragment info                         I   N=           9
           0           0           0           0           0           0
           0           0           0
Atom residue num                           I   N=           9
           0           0           0           0           0           0
           0           0           0
Nuclear spins                              I   N=           9
           0           0           0           2           1           1
           1           1           2
Nuclear ZEff                               R   N=           9
 -3.60000000E+00 -3.60000000E+00 -3.60000000E+00 -4.55000000E+00 -1.00000000E+00
 -1.00000000E+00 -1.00000000E+00 -1.00000000E+00 -4.55000000E+00
Nuclear ZNuc                               R   N=           9
  6.00000000E+00  6.00000000E+00  6.00000000E+00  7.00000000E+00  1.00000000E+00
  1.00000000E+00  1.00000000E+00  1.00000000E+00  7.00000000E+00
Nuclear QMom                               R   N=           9
  0.00000000E+00  0.00000000E+00  0.00000000E+00  2.04400000E+00  0.00000000E+00
  0.00000000E+00  0.00000000E+00  0.00000000E+00  2.04400000E+00
Nuclear GFac                               R   N=           9
  0.00000000E+00  0.00000000E+00  0.00000000E+00  4.03761000E-01  2.79284600E+00
  2.79284600E+00  2.79284600E+00  2.79284600E+00  4.03761000E-01
MicOpt                                     I   N=           9
          -1          -1          -1          -1          -1          -1
          -1          -1          -1
Number of contracted shells                I               42
Number of primitive shells                 I              120
Pure/Cartesian d shells                    I                0
Pure/Cartesian f shells                    I                0
Highest angular momentum                   I                2
Largest degree of contraction              I                7
Shell types                                I   N=          42
           0           0           0           1           1          -2
           0           0           0           1           1          -2
           0           0           0           1           1          -2
           0           0           0           1           1          -2
           0           0           1           0           0           1
           0           0           1           0           0           1
           0           0           0           1           1          -2
Number of primitives per shell             I   N=          42
           7           7           1           3           1           1
           7           7           1           3           1           1
           7           7           1           3           1           1
           7           7           1           3           1           1
           3           1           1           3           1           1
           3           1           1           3           1           1
           7           7           1           3           1           1
Shell to atom map                          I   N=          42
           1           1           1           1           1           1
           2           2           2           2           2           2
           3           3           3           3           3           3
           4           4           4           4           4           4
           5           5           5           6           6           6
           7           7           7           8           8           8
           9           9           9           9           9           9
Primitive exponents                        R   N=         120
  6.66500000E+03  1.00000000E+03  2.28000000E+02  6.47100000E+01  2.10600000E+01
  7.49500000E+00  2.79700000E+00  6.66500000E+03  2.28000000E+02  6.47100000E+01
  2.10600000E+01  7.49500000E+00  2.79700000E+00  5.21500000E-01  1.59600000E-01
  9.43900000E+00  2.00200000E+00  5.45600000E-01  1.51700000E-01  5.50000000E-01
  6.66500000E+03  1.00000000E+03  2.28000000E+02  6.47100000E+01  2.10600000E+01
  7.49500000E+00  2.79700000E+00  6.66500000E+03  2.28000000E+02  6.47100000E+01
  2.10600000E+01  7.49500000E+00  2.79700000E+00  5.21500000E-01  1.59600000E-01
  9.43900000E+00  2.00200000E+00  5.45600000E-01  1.51700000E-01  5.50000000E-01
  6.66500000E+03  1.00000000E+03  2.28000000E+02  6.47100000E+01  2.10600000E+01
  7.49500000E+00  2.79700000E+00  6.66500000E+03  2.28000000E+02  6.47100000E+01
  2.10600000E+01  7.49500000E+00  2.79700000E+00  5.21500000E-01  1.59600000E-01
  9.43900000E+00  2.00200000E+00  5.45600000E-01  1.51700000E-01  5.50000000E-01
  9.04600000E+03  1.35700000E+03  3.09300000E+02  8.77300000E+01  2.85600000E+01
  1.02100000E+01  3.83800000E+00  9.04600000E+03  3.09300000E+02  8.77300000E+01
  2.85600000E+01  1.02100000E+01  3.83800000E+00  7.46600000E-01  2.24800000E-01
  1.35500000E+01  2.91700000E+00  7.97300000E-01  2.18500000E-01  8.17000000E-01
  1.30100000E+01  1.96200000E+00  4.44600000E-01  1.22000000E-01  7.27000000E-01
  1.30100000E+01  1.96200000E+00  4.44600000E-01  1.22000000E-01  7.27000000E-01
  1.30100000E+01  1.96200000E+00  4.44600000E-01  1.22000000E-01  7.27000000E-01
  1.30100000E+01  1.96200000E+00  4.44600000E-01  1.22000000E-01  7.27000000E-01
  9.04600000E+03  1.35700000E+03  3.09300000E+02  8.77300000E+01  2.85600000E+01
  1.02100000E+01  3.83800000E+00  9.04600000E+03  3.09300000E+02  8.77300000E+01
  2.85600000E+01  1.02100000E+01  3.83800000E+00  7.46600000E-01  2.24800000E-01
  1.35500000E+01  2.91700000E+00  7.97300000E-01  2.18500000E-01  8.17000000E-01
Contraction coefficients                   R   N=         120
  6.93516317E-04  5.34150243E-03  2.71366714E-02  1.01992385E-01  2.75508636E-01
  4.51086433E-01  2.87565745E-01  7.73354740E-06  2.78072137E-04 -2.57875654E-03
 -8.95087684E-03 -1.06058855E-01 -1.31517686E-01  1.09948660E+00  1.00000000E+00
  5.69792516E-02  3.13207212E-01  7.60376742E-01  1.00000000E+00  1.00000000E+00
  6.93516317E-04  5.34150243E-03  2.71366714E-02  1.01992385E-01  2.75508636E-01
  4.51086433E-01  2.87565745E-01  7.73354740E-06  2.78072137E-04 -2.57875654E-03
 -8.95087684E-03 -1.06058855E-01 -1.31517686E-01  1.09948660E+00  1.00000000E+00
  5.69792516E-02  3.13207212E-01  7.60376742E-01  1.00000000E+00  1.00000000E+00
  6.93516317E-04  5.34150243E-03  2.71366714E-02  1.01992385E-01  2.75508636E-01
  4.51086433E-01  2.87565745E-01  7.73354740E-06  2.78072137E-04 -2.57875654E-03
 -8.95087684E-03 -1.06058855E-01 -1.31517686E-01  1.09948660E+00  1.00000000E+00
  5.69792516E-02  3.13207212E-01  7.60376742E-01  1.00000000E+00  1.00000000E+00
  7.01708743E-04  5.40299880E-03  2.74729510E-02  1.03514580E-01  2.79586579E-01
  4.51317241E-01  2.80626875E-01  7.77446797E-06  3.00742072E-04 -2.80016549E-03
 -9.89708505E-03 -1.14331114E-01 -1.18162383E-01  1.09786885E+00  1.00000000E+00
  5.89056768E-02  3.20461107E-01  7.53042062E-01  1.00000000E+00  1.00000000E+00
  3.34987264E-02  2.34800801E-01  8.13682958E-01  1.00000000E+00  1.00000000E+00
  3.34987264E-02  2.34800801E-01  8.13682958E-01  1.00000000E+00  1.00000000E+00
  3.34987264E-02  2.34800801E-01  8.13682958E-01  1.00000000E+00  1.00000000E+00
  3.34987264E-02  2.34800801E-01  8.13682958E-01  1.00000000E+00  1.00000000E+00
  7.01708743E-04  5.40299880E-03  2.74729510E-02  1.03514580E-01  2.79586579E-01
  4.51317241E-01  2.80626875E-01  7.77446797E-06  3.00742072E-04 -2.80016549E-03
 -9.89708505E-03 -1.14331114E-01 -1.18162383E-01  1.09786885E+00  1.00000000E+00
  5.89056768E-02  3.20461107E-01  7.53042062E-01  1.00000000E+00  1.00000000E+00
Coordinates of each shell                  R   N=         126
  1.85226527E+00 -1.05154730E+00 -1.76517492E-04  1.85226527E+00 -1.05154730E+00
 -1.76517492E-04  1.85226527E+00 -1.05154730E+00 -1.76517492E-04  1.85226527E+00
 -1.05154730E+00 -1.76517492E-04  1.85226527E+00 -1.05154730E+00 -1.76517492E-04
  1.85226527E+00 -1.05154730E+00 -1.76517492E-04 -2.15786094E+00 -5.03215466E-01
 -1.04277601E-05 -2.15786094E+00 -5.03215466E-01 -1.04277601E-05 -2.15786094E+00
 -5.03215466E-01 -1.04277601E-05 -2.15786094E+00 -5.03215466E-01 -1.04277601E-05
 -2.15786094E+00 -5.03215466E-01 -1.04277601E-05 -2.15786094E+00 -5.03215466E-01
 -1.04277601E-05 -1.12531892E+00  1.88487733E+00  1.30596843E-04 -1.12531892E+00
  1.88487733E+00  1.30596843E-04 -1.12531892E+00  1.88487733E+00  1.30596843E-04
 -1.12531892E+00  1.88487733E+00  1.30596843E-04 -1.12531892E+00  1.88487733E+00
  1.30596843E-04 -1.12531892E+00  1.88487733E+00  1.30596843E-04  1.45469946E+00
  1.50302422E+00  1.17608402E-04  1.45469946E+00  1.50302422E+00  1.17608402E-04
  1.45469946E+00  1.50302422E+00  1.17608402E-04  1.45469946E+00  1.50302422E+00
  1.17608402E-04  1.45469946E+00  1.50302422E+00  1.17608402E-04  1.45469946E+00
  1.50302422E+00  1.17608402E-04  2.79972049E+00  2.86201756E+00  3.54747876E-04
  2.79972049E+00  2.86201756E+00  3.54747876E-04  2.79972049E+00  2.86201756E+00
  3.54747876E-04  3.73942033E+00 -1.86914224E+00 -3.07254199E-04  3.73942033E+00
 -1.86914224E+00 -3.07254199E-04  3.73942033E+00 -1.86914224E+00 -3.07254199E-04
 -4.14937993E+00 -1.01450282E+00 -3.36103096E-05 -4.14937993E+00 -1.01450282E+00
 -3.36103096E-05 -4.14937993E+00 -1.01450282E+00 -3.36103096E-05 -1.95530492E+00
  3.76138258E+00  2.53525103E-04 -1.95530492E+00  3.76138258E+00  2.53525103E-04
 -1.95530492E+00  3.76138258E+00  2.53525103E-04 -2.90266379E-01 -2.32023029E+00
 -1.07510976E-04 -2.90266379E-01 -2.32023029E+00 -1.07510976E-04 -2.90266379E-01
 -2.32023029E+00 -1.07510976E-04 -2.90266379E-01 -2.32023029E+00 -1.07510976E-04
 -2.90266379E-01 -2.32023029E+00 -1.07510976E-04 -2.90266379E-01 -2.32023029E+00
 -1.07510976E-04
Constraint Structure                       R   N=          27
  1.98222574E+00 -1.06845765E+00 -5.72692003E-05 -2.29332855E+00 -4.90887183E-01
 -5.72692003E-05 -1.11458789E+00  1.88152746E+00  1.39262318E-04  1.48990001E+00
  1.51516954E+00 -4.02616651E-05  2.77289624E+00  2.86175643E+00  3.69808906E-04
  3.90781006E+00 -1.79592177E+00 -2.42462361E-04 -4.31204870E+00 -8.47615099E-01
 -1.00260470E-05 -1.93427471E+00  3.76962620E+00  4.17052059E-04 -3.29934107E-01
 -2.36101833E+00 -5.72692003E-05
Num ILSW                                   I              100
ILSW                                       I   N=         100
           0           0           0           0           2           0
           0           0           0           0         402          -1
           0           0           0           0           2           0
           0           0           0           0           1           0
           1           0           0           0           0           0
           0           0      100000           0          -1           0
           0           0           0           0           0           0
           0           0           0           1           0           0
           0           0           1           0           0           0
           0           0           4          41           0           0
           0           0           5           0           0           0
           0           0           0           9           0           0
           0           0           0           0           0           0
           0           0           0           0           0           0
           0           0           0           0           0           0
           0           0           0           0           0           0
           0           0           0           0
Num RLSW                                   I               41
RLSW                                       R   N=          41
  8.00000000E-01  7.20000000E-01  1.00000000E+00  8.10000000E-01  2.00000000E-01
  0.00000000E+00  0.00000000E+00  1.00000000E+00  0.00000000E+00  0.00000000E+00
  0.00000000E+00  0.00000000E+00  1.00000000E+00  0.00000000E+00  0.00000000E+00
  0.00000000E+00  0.00000000E+00  1.00000000E+00  0.00000000E+00  0.00000000E+00
  0.00000000E+00  0.00000000E+00  1.00000000E+00  0.00000000E+00  0.00000000E+00
  0.00000000E+00  0.00000000E+00  1.00000000E+00  0.00000000E+00  0.00000000E+00
  0.00000000E+00  0.00000000E+00  1.00000000E+00  0.00000000E+00  0.00000000E+00
  0.00000000E+00  0.00000000E+00  0.00000000E+00  1.00000000E+00  1.00000000E+00
  0.00000000E+00
MxBond                                     I                3
NBond                                      I   N=           9
           3           3           3           3           1           1
           1           1           2
IBond                                      I   N=          27
           4           6           9           3           7           9
           2           4           8           1           3           5
           4           0           0           1           0           0
           2           0           0           3           0           0
           1           2           0
RBond                                      R   N=          27
  1.00000000E+00  1.00000000E+00  1.00000000E+00  1.50000000E+00  1.00000000E+00
  1.00000000E+00  1.50000000E+00  1.00000000E+00  1.00000000E+00  1.00000000E+00
  1.00000000E+00  1.00000000E+00  1.00000000E+00  0.00000000E+00  0.00000000E+00
  1.00000000E+00  0.00000000E+00  0.00000000E+00  1.00000000E+00  0.00000000E+00
  0.00000000E+00  1.00000000E+00  0.00000000E+00  0.00000000E+00  1.00000000E+00
  1.00000000E+00  0.00000000E+00
Virial Ratio                               R      2.006848514719528E+00
SCF Energy                                 R     -2.262320024198666E+02
Total Energy                               R     -2.262320024198666E+02
RMS Force                                  R      7.598708709126652E-05
RMS Density                                R      3.514796792917274E-09
External E-field                           R   N=          35
  0.00000000E+00  0.00000000E+00  0.00000000E+00  0.00000000E+00  0.00000000E+00
  0.00000000E+00  0.00000000E+00  0.00000000E+00  0.00000000E+00  0.00000000E+00
  0.00000000E+00  0.00000000E+00  0.00000000E+00  0.00000000E+00  0.00000000E+00
  0.00000000E+00  0.00000000E+00  0.00000000E+00  0.00000000E+00  0.00000000E+00
  0.00000000E+00  0.00000000E+00  0.00000000E+00  0.00000000E+00  0.00000000E+00
  0.00000000E+00  0.00000000E+00  0.00000000E+00  0.00000000E+00  0.00000000E+00
  0.00000000E+00  0.00000000E+00  0.00000000E+00  0.00000000E+00  0.00000000E+00
IOpCl                                      I                0
IROHF                                      I                0
Alpha Orbital Energies                     R   N=          90
 -1.43880275E+01 -1.43044737E+01 -1.02365314E+01 -1.02138297E+01 -1.01946771E+01
 -1.01100573E+00 -8.67483668E-01 -7.39860148E-01 -6.13277532E-01 -5.86644100E-01
 -5.57687217E-01 -4.37492291E-01 -4.34674009E-01 -4.27743594E-01 -4.02093355E-01
 -2.80086242E-01 -2.65179471E-01 -2.29064483E-01  2.66776668E-02  4.53457094E-02
  6.76869785E-02  9.95485352E-02  1.04964865E-01  1.24381869E-01  2.09925996E-01
  2.26962356E-01  2.76204418E-01  3.06137329E-01  3.90034734E-01  4.16998140E-01
  4.64419986E-01  4.69605794E-01  4.93167854E-01  5.16934434E-01  5.46210602E-01
  5.63545889E-01  5.63549049E-01  5.93648739E-01  6.67077717E-01  7.00944843E-01
  7.08953037E-01  7.75157453E-01  7.78746407E-01  8.56027103E-01  8.59614953E-01
  8.62387417E-01  8.85690524E-01  9.27471415E-01  9.72531014E-01  1.05066586E+00
  1.06588116E+00  1.08091422E+00  1.11876910E+00  1.16248173E+00  1.19365722E+00
  1.22170567E+00  1.28996464E+00  1.43887711E+00  1.47505956E+00  1.50539044E+00
  1.53898872E+00  1.55529307E+00  1.60135430E+00  1.63419578E+00  1.64979908E+00
  1.67264930E+00  1.75501600E+00  1.78798562E+00  1.79405440E+00  1.83476204E+00
  1.87104922E+00  1.91753339E+00  1.94111983E+00  2.09112535E+00  2.09138448E+00
  2.13005095E+00  2.24437468E+00  2.26191124E+00  2.32770651E+00  2.41110863E+00
  2.41192497E+00  2.43874235E+00  2.49930571E+00  2.56236329E+00  2.65430377E+00
  2.69344028E+00  2.75731742E+00  2.82654145E+00  3.13813658E+00  3.39175471E+00
Alpha MO coefficients                      R   N=        8100
  1.11580359E-04  1.24391416E-04  6.42260781E-03  6.60681368E-05  8.81336209E-06
  2.39089070E-09 -2.98569325E-03  3.11103601E-03  5.08034477E-07  9.83779489E-05
 -7.62826644E-08 -1.52181099E-07  1.03445881E-03  1.15798557E-04  6.73424242E-06
  4.91593718E-05 -5.37506497E-03 -9.81097011E-05 -3.97257408E-04 -3.78707921E-08
 -4.15687170E-03 -7.68264284E-04  4.51490583E-08 -9.90675097E-05  2.67807999E-08
 -7.45627377E-09  3.43704377E-04 -1.55506531E-05  7.75220348E-05 -1.78169766E-05
  9.46842159E-03 -1.29124613E-05  1.23438769E-05 -4.94536220E-09  4.34111995E-03
 -4.69129191E-03 -2.94884600E-07  1.00470457E-06  1.37417120E-08  4.00739185E-08
 -9.49620480E-04  1.95062085E-04  9.96574750E-01  2.72445846E-02 -1.98824177E-02
  1.26754094E-05  2.30854449E-05  4.77158545E-08  4.97655208E-03  4.22884300E-03
  5.25034046E-07 -4.53940282E-04  1.45499965E-07  1.48632526E-07 -4.69011795E-05
  7.95759815E-04 -2.12399345E-03 -3.97916633E-04  1.37495813E-03  1.46210742E-03
  2.76800909E-07 -3.05572735E-04  1.00498718E-03  8.80630861E-05 -5.13237853E-04
 -5.44417685E-08 -4.99695016E-04 -1.19657852E-03 -4.16626527E-05 -9.59612911E-05
 -8.01310957E-09 -1.58267515E-04  1.57980451E-03 -5.45294631E-04  8.61791088E-05
  1.01223554E-08 -1.82931526E-04 -4.21687753E-04  3.44274376E-04 -1.97358305E-04
 -1.43573796E-04  1.31786592E-09 -7.59421202E-04 -1.60491695E-04 -4.68397390E-08
 -1.33592166E-04 -4.39995841E-08  3.14018717E-08  8.12042138E-05 -2.19676645E-04
  1.67138005E-04  1.38761572E-04  7.11278175E-03  2.42896305E-04  1.13106752E-04
 -4.33525795E-09 -4.71631965E-03 -9.66959459E-05  3.68115181E-07  2.34551116E-04
 -3.43240199E-08  1.37654172E-07 -4.46796985E-04 -1.30051133E-03  7.85821440E-05
  5.67155734E-05  1.06020779E-02 -2.99573311E-05  4.76824574E-05 -6.55974946E-09
  6.61265711E-03 -7.18756479E-04 -2.89933213E-08 -8.82817022E-05  8.34623350E-08
  4.73799213E-09  2.76498660E-04  1.23044845E-03  3.46158571E-05  8.00365396E-05
 -5.69265824E-03  2.07272366E-04  3.31478628E-04  3.05039355E-09 -2.69479811E-03
  4.34566757E-03  3.36765994E-07  4.70764757E-05  1.22486930E-08 -4.29598145E-08
  2.89295294E-04 -6.11333233E-05  1.17538806E-04 -4.71196517E-04  8.94854832E-04
 -1.17110146E-05  2.57147002E-04  3.18190546E-08 -2.00788059E-04  9.77724348E-04
  9.52690601E-09 -1.42500035E-04 -4.15007726E-08  1.05460620E-08  2.27004309E-04
 -6.86534580E-06 -3.33967448E-04  1.24023728E-04  6.50181136E-05 -1.50177497E-05
  2.80681007E-08 -2.71826292E-04  9.79683413E-04  4.92897832E-04  4.04661682E-04
 -1.17607908E-08 -4.10942676E-04  1.43709258E-03 -5.63638327E-04  3.85184159E-04
  2.37771843E-08 -3.32789405E-04 -1.58192402E-03  1.77719729E-04 -1.95724465E-05
 -1.98600469E-09  9.96696597E-01  2.71962054E-02 -2.32264577E-02  5.19342155E-04
  2.55188092E-03  4.83183304E-08 -3.73875333E-04 -6.38011697E-03 -1.50738812E-07
  4.54619054E-05 -4.26626565E-09 -1.50594623E-08  3.09122169E-04  8.82926211E-05
  9.96236758E-01  2.94132866E-02 -2.27163965E-03 -2.20869068E-04  6.28488191E-04
  2.01873090E-07 -3.07521714E-03  1.56670565E-03  3.71967649E-07 -2.21779238E-03
 -3.53316024E-07  3.06371703E-07  8.07935776E-04 -8.09392194E-04  9.60030791E-05
  1.77456596E-04 -4.63738856E-04  2.38985470E-04 -3.58281797E-04 -2.62846477E-08
  2.07716619E-03  1.37375086E-04 -4.56296809E-09 -1.59243998E-04  1.11951270E-08
  3.28516434E-08  8.05399078E-05 -1.27136946E-04  2.42602619E-04  1.38003630E-04
  1.68790669E-03  4.85833173E-04  9.76176852E-05 -5.26728567E-09  9.91486480E-04
 -3.27008276E-03 -2.60119917E-07 -2.72066233E-04 -5.71452989E-08  2.10385087E-08
  1.34267871E-05 -5.05629083E-04  1.62520653E-04  1.12907984E-03 -7.08223568E-03
 -3.18476698E-04  3.81066164E-04  2.90850806E-08  2.28179565E-03  5.77477888E-03
  6.79482027E-07  1.18203184E-03  8.64329315E-10 -3.58071335E-07  1.07994388E-03
  8.05717105E-06 -6.15634205E-04 -7.92617317E-04 -5.32910983E-05 -5.12573454E-04
 -6.06546782E-08 -3.25324294E-03  2.98259203E-03  2.39237145E-03 -1.08802952E-03
 -1.47550933E-07  3.88711696E-04  8.61552995E-04 -3.12269599E-05  1.93974917E-05
  1.17980305E-08  2.09716932E-04  1.32619297E-03 -2.42215721E-06  1.94943830E-04
  1.99829064E-08  6.83479515E-05  9.60215623E-04 -6.68333545E-03 -7.27112289E-04
 -4.63525492E-04  1.91283512E-08 -2.16356901E-03 -3.59355422E-03 -3.26476275E-09
  1.03406016E-03  6.49311497E-08  7.90591511E-09 -1.49507848E-04 -1.03779472E-03
 -3.56725413E-04 -1.31788676E-04  6.24786265E-03 -9.72442480E-05  1.39872659E-04
  3.58315653E-08 -6.40622018E-03  1.62700596E-03  4.03044519E-07 -5.56289407E-04
 -1.04552651E-07  5.16209629E-08  8.28669579E-05 -3.91360760E-04  1.46991881E-02
 -4.59264135E-04 -1.74035135E-04 -3.43963665E-04 -1.26904256E-03 -8.73932491E-08
 -2.48676092E-03  1.84695756E-03  1.75731550E-07  1.16616462E-03 -5.50921689E-08
 -1.15640010E-07  1.83499843E-04 -1.53123228E-03  9.96187292E-01  2.98751207E-02
 -8.05996011E-03  1.02003548E-03  2.49248169E-04  2.33109936E-08  2.86486363E-03
  7.54332191E-04  7.43808500E-08 -1.95401725E-03 -8.00070445E-08  2.75603578E-07
 -1.17600045E-03 -1.45836917E-03  1.78900471E-04  1.16715697E-03 -7.50476762E-03
  2.81452988E-04 -1.37179190E-04 -2.78059191E-08  5.03816889E-03  2.08214475E-03
  2.98727528E-07  1.18954774E-03 -4.11333779E-08 -1.09184882E-07 -1.08922383E-03
 -1.25203184E-04 -2.98576112E-04 -8.28303080E-04 -4.31605046E-04 -2.03080549E-04
 -3.73481506E-08  2.54689117E-04  2.15894171E-03  2.98572972E-04 -1.90092955E-05
 -1.23468851E-08  2.75266359E-04 -3.92245957E-04  6.10926650E-04 -2.98973755E-04
 -2.05342626E-08 -3.59877708E-03  2.26309010E-03 -1.42456062E-03  2.42742039E-03
  1.62566386E-07  2.25467879E-05  1.92848133E-04 -2.83738643E-03  1.53972125E-04
 -5.90133397E-05 -1.75492640E-08 -2.12762663E-03 -7.48292998E-04  1.02411369E-07
 -6.78108773E-05  2.38682718E-09  3.68205574E-08 -1.15127582E-04 -6.70561092E-05
 -1.77053808E-04 -1.59084500E-04  5.99319352E-03 -1.54483954E-04  1.56095699E-04
  4.35928654E-08 -5.17841975E-03  3.50712617E-03  4.91890203E-07 -4.35065849E-04
 -3.64300191E-08  8.79551865E-08 -6.02237210E-06 -5.06607239E-05  9.96229495E-01
  2.99795499E-02 -1.16111729E-02  2.17573460E-04 -2.15122389E-04 -1.57776356E-08
 -8.38167852E-04 -3.44022794E-03 -1.29981965E-07 -1.74177494E-03  6.97172976E-08
  1.05989561E-07  1.11331743E-03  8.16498506E-04 -1.46489170E-02 -1.35191875E-03
  2.85602431E-03  7.50836028E-04  1.04030714E-03  4.46911981E-08 -2.26526151E-03
 -1.03808415E-03 -4.18512465E-08  1.24798489E-03 -3.11245267E-08 -2.43403481E-07
  1.55159996E-03 -5.17607878E-04  3.36174209E-05  3.48467633E-04 -3.10446787E-03
  3.46260741E-05 -1.43279647E-04 -2.00698711E-08  2.94120660E-05  2.88732661E-03
  3.82729551E-07 -6.74877183E-05  1.72999738E-08 -1.33478846E-08  8.94333436E-05
  2.78522583E-04 -4.52819339E-04 -4.18481792E-04  1.95194474E-04 -2.05424669E-05
  6.99310263E-09  4.23645148E-04  2.03702111E-03  1.06911752E-04 -9.90976013E-05
 -1.15383185E-08 -3.28878906E-03  1.58201802E-03 -2.59112404E-03 -2.92064335E-04
 -8.63590625E-09  4.85490005E-04  4.69369907E-05  6.72535223E-04 -3.02607549E-04
 -2.30959321E-08  1.45962401E-04  1.19830098E-03 -6.30547820E-03  2.15404161E-04
 -4.35066339E-04 -1.91885746E-08  1.11349417E-03 -3.27979262E-03 -9.37144635E-08
  1.01957651E-03  7.15802662E-08 -7.70068803E-08  2.19638712E-04  9.89687050E-04
 -9.73728262E-02  1.91009894E-01  5.29589500E-02 -8.45893294E-02  6.66562562E-02
  1.29789906E-05  2.00197912E-02  8.78866491E-04 -7.00720947E-07 -1.35428243E-02
 -1.17836571E-06  3.04165996E-06 -5.08125410E-03 -5.00761072E-04 -5.88844556E-02
  1.13788224E-01  6.58643380E-02  7.45898751E-02  2.03522800E-03 -1.67538378E-07
  1.01639985E-02  8.86208423E-03 -1.55235013E-08 -8.81234391E-03 -4.16290640E-07
  5.80652157E-07  4.01142781E-03 -2.55055445E-03 -7.46799619E-02  1.43541260E-01
  4.42175269E-02  7.93724169E-02 -5.38978228E-02 -3.16753470E-06  5.76735987E-03
  1.41502057E-02  1.34081424E-06 -1.09530787E-02 -3.98830132E-08  7.58363341E-07
  9.26332244E-03 -4.13455857E-03 -1.45717941E-01  2.99162822E-01  2.51587052E-01
 -4.32475500E-02 -5.51900007E-02 -4.74737107E-06 -3.52928857E-02 -4.27725720E-02
 -5.09979322E-06 -1.00271284E-02  1.39754790E-07  2.09859957E-06 -1.43344574E-03
  4.21659381E-04  9.34298180E-02  7.93964551E-03 -1.20053783E-02 -1.19749979E-02
 -2.03502789E-06  2.96058537E-02 -1.14388324E-02 -6.66448559E-03  3.34190708E-03
  6.40433411E-07  1.41420262E-02 -1.20926618E-03  3.39174932E-03 -3.41351189E-04
 -4.76003526E-08  2.26527221E-02 -8.54727449E-03  3.71527281E-03 -4.84527215E-03
 -3.61290585E-07 -8.48509881E-02  1.70660555E-01  1.50091881E-01  2.52354277E-02
  8.78089943E-02  2.05107894E-06  1.08798195E-02  3.09669984E-02  5.07228842E-07
 -7.25580623E-03 -1.92493044E-07  2.42164221E-07 -2.39010073E-03  3.51866727E-03
 -3.64641958E-02  7.98156247E-02  3.66729523E-02 -1.15162944E-01 -1.33239709E-01
 -4.67736646E-06 -2.31392520E-02 -2.67657604E-02 -1.76889058E-06 -3.28710629E-03
 -1.20513436E-06 -3.68121657E-06  2.71359520E-02  1.29932219E-02 -7.17680262E-02
  1.41120045E-01  6.09841121E-02  7.53430864E-02 -7.62402628E-02 -4.97531996E-06
  1.36108286E-02 -8.32870004E-03 -4.14273864E-07 -8.19708426E-03 -1.33632233E-06
  5.66253520E-07  5.73217792E-03 -1.99739671E-02  3.09082913E-02 -5.67896045E-02
 -2.66717682E-02 -8.72538954E-02 -4.16603977E-02 -3.22761986E-06 -1.62752988E-02
 -1.69587748E-02 -1.81035082E-06  2.95250319E-03 -3.30444301E-07  1.00900806E-06
 -2.14469127E-02  1.21247923E-03  1.26278711E-01 -2.68471643E-01 -2.16664921E-01
 -1.30023633E-02 -5.06912777E-02 -5.60087792E-06  1.49371246E-02 -4.06455183E-03
  7.33845509E-07  2.71479857E-03  2.06335868E-07 -4.27484260E-07 -4.00345558E-03
  3.42713081E-03 -1.46299651E-01 -1.31425921E-02  1.66861500E-02  1.65178162E-02
  2.90795480E-06  9.52805446E-03  8.27719921E-04 -2.72308652E-03 -3.77659972E-03
 -9.94488409E-08  3.60278997E-02  3.46788125E-03  7.28308737E-03 -2.14091253E-03
 -1.81999141E-07 -2.59738553E-02  1.29433948E-03 -4.65435287E-03  4.05724300E-03
  2.84446695E-07 -1.45620279E-01  3.04353679E-01  2.43738528E-01  1.56743537E-02
  1.04799604E-01  5.40882789E-07 -3.62620583E-03  3.15970827E-02  1.06156085E-06
 -7.76725141E-03 -8.61624067E-07  1.24519973E-07  1.37646965E-03 -1.78260055E-03
  1.09781331E-01 -2.27867330E-01 -1.53498559E-01 -5.34513082E-03 -1.17002263E-02
 -7.43936559E-06  2.53399405E-02 -2.11648069E-02 -3.57697094E-06  5.90804128E-03
 -6.35337167E-07 -1.69619098E-06  9.81834472E-03 -1.35598890E-02 -1.08498307E-01
  2.19056162E-01  1.31008062E-01  2.18698174E-02  9.34499886E-02  6.34026651E-06
  1.80046932E-02  2.72834310E-02  1.36484278E-06 -6.50407095E-03  6.23976153E-07
  1.15188664E-06 -9.34472701E-03  1.01330267E-02 -1.36688058E-01  2.79317593E-01
  1.73939868E-01 -1.30005461E-02 -6.37120806E-02 -2.88819190E-06 -5.86654099E-03
 -3.23275329E-02 -2.41646536E-06 -8.17510800E-03  4.22369134E-07  1.19616515E-06
 -3.63132905E-03  6.82288448E-03  2.62369595E-02 -5.86416713E-02 -3.63635633E-02
 -1.78190541E-01  9.54973335E-02  8.34207845E-06 -6.77775761E-02  4.70858001E-02
  4.43820695E-06 -8.27869192E-04  8.38269917E-08 -1.39658272E-06  1.44904839E-02