 Entering Gaussian System, Link 0=g16
 Initial command:
 /APL/ISV/x86_64/gaussian/16/C.01/g16/l1.exe "/scr/yagi/job10.nGDx/Gau-49568.inp" -scrdir="/scr/yagi/job10.nGDx/"
 Entering Link 1 = /APL/ISV/x86_64/gaussian/16/C.01/g16/l1.exe PID=     49569.
  
 Copyright (c) 1988-2019, Gaussian, Inc.  All Rights Reserved.
  
 This is part of the Gaussian(R) 16 program.  It is based on
 the Gaussian(R) 09 system (copyright 2009, Gaussian, Inc.),
 the Gaussian(R) 03 system (copyright 2003, Gaussian, Inc.),
 the Gaussian(R) 98 system (copyright 1998, Gaussian, Inc.),
 the Gaussian(R) 94 system (copyright 1995, Gaussian, Inc.),
 the Gaussian 92(TM) system (copyright 1992, Gaussian, Inc.),
 the Gaussian 90(TM) system (copyright 1990, Gaussian, Inc.),
 the Gaussian 88(TM) system (copyright 1988, Gaussian, Inc.),
 the Gaussian 86(TM) system (copyright 1986, Carnegie Mellon
 University), and the Gaussian 82(TM) system (copyright 1983,
 Carnegie Mellon University). Gaussian is a federally registered
 trademark of Gaussian, Inc.
  
 This software contains proprietary and confidential information,
 including trade secrets, belonging to Gaussian, Inc.
  
 This software is provided under written license and may be
 used, copied, transmitted, or stored only in accord with that
 written license.
  
 The following legend is applicable only to US Government
 contracts under FAR:
  
                    RESTRICTED RIGHTS LEGEND
  
 Use, reproduction and disclosure by the US Government is
 subject to restrictions as set forth in subparagraphs (a)
 and (c) of the Commercial Computer Software - Restricted
 Rights clause in FAR 52.227-19.
  
 Gaussian, Inc.
 340 Quinnipiac St., Bldg. 40, Wallingford CT 06492
  
  
 ---------------------------------------------------------------
 Warning -- This program may not be used in any manner that
 competes with the business of Gaussian, Inc. or will provide
 assistance to any competitor of Gaussian, Inc.  The licensee
 of this program is prohibited from giving any competitor of
 Gaussian, Inc. access to this program.  By using this program,
 the user acknowledges that Gaussian, Inc. is engaged in the
 business of creating and licensing software in the field of
 computational chemistry and represents and warrants to the
 licensee that it is not a competitor of Gaussian, Inc. and that
 it will not use this program in any manner prohibited above.
 ---------------------------------------------------------------
  

 Cite this work as:
 Gaussian 16, Revision C.01,
 M. J. Frisch, G. W. Trucks, H. B. Schlegel, G. E. Scuseria, 
 M. A. Robb, J. R. Cheeseman, G. Scalmani, V. Barone, 
 G. A. Petersson, H. Nakatsuji, X. Li, M. Caricato, A. V. Marenich, 
 J. Bloino, B. G. Janesko, R. Gomperts, B. Mennucci, H. P. Hratchian, 
 J. V. Ortiz, A. F. Izmaylov, J. L. Sonnenberg, D. Williams-Young, 
 F. Ding, F. Lipparini, F. Egidi, J. Goings, B. Peng, A. Petrone, 
 T. Henderson, D. Ranasinghe, V. G. Zakrzewski, J. Gao, N. Rega, 
 G. Zheng, W. Liang, M. Hada, M. Ehara, K. Toyota, R. Fukuda, 
 J. Hasegawa, M. Ishida, T. Nakajima, Y. Honda, O. Kitao, H. Nakai, 
 T. Vreven, K. Throssell, J. A. Montgomery, Jr., J. E. Peralta, 
 F. Ogliaro, M. J. Bearpark, J. J. Heyd, E. N. Brothers, K. N. Kudin, 
 V. N. Staroverov, T. A. Keith, R. Kobayashi, J. Normand, 
 K. Raghavachari, A. P. Rendell, J. C. Burant, S. S. Iyengar, 
 J. Tomasi, M. Cossi, J. M. Millam, M. Klene, C. Adamo, R. Cammi, 
 J. W. Ochterski, R. L. Martin, K. Morokuma, O. Farkas, 
 J. B. Foresman, and D. J. Fox, Gaussian, Inc., Wallingford CT, 2019.
 
 ******************************************
 Gaussian 16:  ES64L-G16RevC.01  3-Jul-2019
                19-Jun-2021 
 ******************************************
 %NprocShared=8
 Will use up to    8 processors via shared memory.
 %chk=gaussian.chk
 %mem=1gb
 ----------------------------------------------------------------------
 #P B3LYP/cc-pVDZ EmpiricalDispersion=GD3 scf(conver=8) iop(4/5=100) no
 symm Charge Force Prop=(Field,Read) pop=mk
 ----------------------------------------------------------------------
 1/10=7,18=10,28=-2,30=1,38=1,125=101/1,3;
 2/12=2,15=1,17=6,18=5,29=2,40=1/2;
 3/5=16,11=2,25=1,30=1,71=1,74=-5,124=31/1,2,3;
 4/5=100/1;
 5/5=2,6=8,38=5/2;
 6/7=2,8=2,9=2,10=2,14=2,15=9,20=1,28=1/1,2;
 7/7=1,16=-2,29=1,30=1/1,2,3,16;
 1/10=7,18=10,28=-2,30=1/3;
 99/12=1/99;
 Leave Link    1 at Sat Jun 19 00:38:58 2021, MaxMem=   134217728 cpu:               0.4 elap:               0.1
 (Enter /APL/ISV/x86_64/gaussian/16/C.01/g16/l101.exe)
 --------------------------------
 Gaussian run for QMMM in genesis
 --------------------------------
 Symbolic Z-matrix:
 Charge = -1 Multiplicity = 1
 P                    -5.01635  -10.70705  -5.39337 
 O                    -5.58878  -10.87197  -3.85166 
 H                    -5.4584   -11.77969  -3.51059 
 O                    -5.73813  -9.29591  -5.78601 
 H                    -6.71827  -9.35662  -5.70073 
 O                    -3.5033   -10.45564  -5.42591 
 O                    -5.5485   -11.86929  -6.26839 
 
 ITRead=  0  0  0  0  0  0  0
 MicOpt= -1 -1 -1 -1 -1 -1 -1
 NAtoms=      7 NQM=        7 NQMF=       0 NMMI=      0 NMMIF=      0
                NMic=       0 NMicF=      0.
                    Isotopes and Nuclear Properties:
 (Nuclear quadrupole moments (NQMom) in fm**2, nuclear magnetic moments (NMagM)
  in nuclear magnetons)

  Atom         1           2           3           4           5           6           7
 IAtWgt=          31          16           1          16           1          16          16
 AtmWgt=  30.9737634  15.9949146   1.0078250  15.9949146   1.0078250  15.9949146  15.9949146
 NucSpn=           1           0           1           0           1           0           0
 AtZEff=  -0.0000000  -0.0000000  -0.0000000  -0.0000000  -0.0000000  -0.0000000  -0.0000000
 NQMom=    0.0000000   0.0000000   0.0000000   0.0000000   0.0000000   0.0000000   0.0000000
 NMagM=    1.1316000   0.0000000   2.7928460   0.0000000   2.7928460   0.0000000   0.0000000
 AtZNuc=  15.0000000   8.0000000   1.0000000   8.0000000   1.0000000   8.0000000   8.0000000
 Background charge distribution read from input stream:
 Point Charges:
 XYZ=   -2.6963  -14.6159  -20.9760 Q=   -0.8340 A=    0.0000 R=    0.0000 C=    0.0000
 XYZ=   -2.7272  -14.8113  -20.0210 Q=    0.4170 A=    0.0000 R=    0.0000 C=    0.0000
 XYZ=   -1.7790  -14.8619  -21.1901 Q=    0.4170 A=    0.0000 R=    0.0000 C=    0.0000
 XYZ=    1.0791   -4.2187  -12.8066 Q=   -0.8340 A=    0.0000 R=    0.0000 C=    0.0000
 XYZ=    0.7809   -3.3627  -13.1797 Q=    0.4170 A=    0.0000 R=    0.0000 C=    0.0000
 XYZ=    1.9681   -3.9651  -12.5075 Q=    0.4170 A=    0.0000 R=    0.0000 C=    0.0000
 XYZ=    5.0563  -20.5448   -5.6894 Q=   -0.8340 A=    0.0000 R=    0.0000 C=    0.0000
 XYZ=    4.2513  -20.3410   -6.1654 Q=    0.4170 A=    0.0000 R=    0.0000 C=    0.0000
 XYZ=    5.5003  -19.7018   -5.5967 Q=    0.4170 A=    0.0000 R=    0.0000 C=    0.0000
 XYZ=  -19.6422  -15.7502   -0.6734 Q=   -0.8340 A=    0.0000 R=    0.0000 C=    0.0000
 XYZ=  -19.9553  -15.1981    0.0718 Q=    0.4170 A=    0.0000 R=    0.0000 C=    0.0000
 XYZ=  -19.3498  -16.5558   -0.1928 Q=    0.4170 A=    0.0000 R=    0.0000 C=    0.0000
 XYZ=   -5.5930   -9.4960   11.9470 Q=   -0.8340 A=    0.0000 R=    0.0000 C=    0.0000
 XYZ=   -4.8730   -9.3010   11.3470 Q=    0.4170 A=    0.0000 R=    0.0000 C=    0.0000
 XYZ=   -5.2990  -10.2650   12.4340 Q=    0.4170 A=    0.0000 R=    0.0000 C=    0.0000
 XYZ=  -17.9572  -15.7308    2.1325 Q=   -0.8340 A=    0.0000 R=    0.0000 C=    0.0000
 XYZ=  -18.7919  -16.2306    2.2237 Q=    0.4170 A=    0.0000 R=    0.0000 C=    0.0000
 XYZ=  -17.3071  -16.4211    2.3306 Q=    0.4170 A=    0.0000 R=    0.0000 C=    0.0000
 XYZ=  -20.5030   -8.7000  -18.3330 Q=   -0.8340 A=    0.0000 R=    0.0000 C=    0.0000
 XYZ=  -20.1000   -7.9550  -18.7790 Q=    0.4170 A=    0.0000 R=    0.0000 C=    0.0000
 XYZ=  -19.9410   -9.4440  -18.5520 Q=    0.4170 A=    0.0000 R=    0.0000 C=    0.0000
 XYZ=  -21.7340  -19.2730   -3.2290 Q=   -0.8340 A=    0.0000 R=    0.0000 C=    0.0000
 XYZ=  -21.4420  -19.8120   -3.9640 Q=    0.4170 A=    0.0000 R=    0.0000 C=    0.0000
 XYZ=  -21.3640  -18.4080   -3.4020 Q=    0.4170 A=    0.0000 R=    0.0000 C=    0.0000
 XYZ=   -7.2649    2.3627    5.3328 Q=   -0.8340 A=    0.0000 R=    0.0000 C=    0.0000
 XYZ=   -7.5204    3.0062    4.6510 Q=    0.4170 A=    0.0000 R=    0.0000 C=    0.0000
 XYZ=   -7.7446    2.6971    6.1182 Q=    0.4170 A=    0.0000 R=    0.0000 C=    0.0000
 XYZ=  -20.7830  -19.9770   -0.1600 Q=   -0.8340 A=    0.0000 R=    0.0000 C=    0.0000
 XYZ=  -21.3390  -19.8850   -0.9340 Q=    0.4170 A=    0.0000 R=    0.0000 C=    0.0000
 XYZ=  -20.1610  -20.6670   -0.3920 Q=    0.4170 A=    0.0000 R=    0.0000 C=    0.0000
 XYZ=   -1.4493  -18.7801    3.8072 Q=   -0.8340 A=    0.0000 R=    0.0000 C=    0.0000
 XYZ=   -1.3195  -19.6849    3.4551 Q=    0.4170 A=    0.0000 R=    0.0000 C=    0.0000
 XYZ=   -2.2066  -18.9637    4.3976 Q=    0.4170 A=    0.0000 R=    0.0000 C=    0.0000
 XYZ=  -20.9669  -14.2421    1.2250 Q=   -0.8340 A=    0.0000 R=    0.0000 C=    0.0000
 XYZ=  -20.7383  -13.3140    1.4313 Q=    0.4170 A=    0.0000 R=    0.0000 C=    0.0000
 XYZ=  -21.5707  -14.0997    0.4651 Q=    0.4170 A=    0.0000 R=    0.0000 C=    0.0000
 XYZ=  -22.5140  -16.5510    6.1750 Q=   -0.8340 A=    0.0000 R=    0.0000 C=    0.0000
 XYZ=  -22.8920  -16.5770    7.0540 Q=    0.4170 A=    0.0000 R=    0.0000 C=    0.0000
 XYZ=  -22.7990  -17.3680    5.7660 Q=    0.4170 A=    0.0000 R=    0.0000 C=    0.0000
 XYZ=   -4.0704  -13.3142    9.3753 Q=   -0.8340 A=    0.0000 R=    0.0000 C=    0.0000
 XYZ=   -4.4511  -12.8299   10.1392 Q=    0.4170 A=    0.0000 R=    0.0000 C=    0.0000
 XYZ=   -3.5040  -12.5983    9.0185 Q=    0.4170 A=    0.0000 R=    0.0000 C=    0.0000
 XYZ=   -3.3596  -21.5270    0.8281 Q=   -0.8340 A=    0.0000 R=    0.0000 C=    0.0000
 XYZ=   -3.8893  -22.3536    0.8024 Q=    0.4170 A=    0.0000 R=    0.0000 C=    0.0000
 XYZ=   -4.0537  -20.8790    0.5895 Q=    0.4170 A=    0.0000 R=    0.0000 C=    0.0000
 XYZ=   -9.0903  -24.0899  -11.3692 Q=   -0.8340 A=    0.0000 R=    0.0000 C=    0.0000
 XYZ=   -8.8477  -23.3082  -10.8291 Q=    0.4170 A=    0.0000 R=    0.0000 C=    0.0000
 XYZ=   -8.4444  -24.7328  -11.0163 Q=    0.4170 A=    0.0000 R=    0.0000 C=    0.0000
 XYZ=  -19.2530  -13.3555  -14.3801 Q=   -0.8340 A=    0.0000 R=    0.0000 C=    0.0000
 XYZ=  -19.2537  -13.1074  -13.4272 Q=    0.4170 A=    0.0000 R=    0.0000 C=    0.0000
 XYZ=  -20.2055  -13.3615  -14.5808 Q=    0.4170 A=    0.0000 R=    0.0000 C=    0.0000
 XYZ=  -17.7510    1.0020  -15.1100 Q=   -0.8340 A=    0.0000 R=    0.0000 C=    0.0000
 XYZ=  -17.1890    0.2420  -14.9580 Q=    0.4170 A=    0.0000 R=    0.0000 C=    0.0000
 XYZ=  -17.2010    1.7550  -14.8950 Q=    0.4170 A=    0.0000 R=    0.0000 C=    0.0000
 XYZ=   -3.6953   -6.9986    4.1182 Q=   -0.8340 A=    0.0000 R=    0.0000 C=    0.0000
 XYZ=   -4.2931   -6.2712    3.8517 Q=    0.4170 A=    0.0000 R=    0.0000 C=    0.0000
 XYZ=   -3.6516   -6.8184    5.0867 Q=    0.4170 A=    0.0000 R=    0.0000 C=    0.0000
 XYZ=    5.9960  -25.0310   -6.8440 Q=   -0.8340 A=    0.0000 R=    0.0000 C=    0.0000
 XYZ=    6.2450  -25.2160   -7.7490 Q=    0.4170 A=    0.0000 R=    0.0000 C=    0.0000
 XYZ=    6.5630  -25.5950   -6.3180 Q=    0.4170 A=    0.0000 R=    0.0000 C=    0.0000
 XYZ=  -18.1583  -13.1429    2.9381 Q=   -0.8340 A=    0.0000 R=    0.0000 C=    0.0000
 XYZ=  -18.1737  -14.0794    2.6408 Q=    0.4170 A=    0.0000 R=    0.0000 C=    0.0000
 XYZ=  -19.0877  -13.0168    3.2272 Q=    0.4170 A=    0.0000 R=    0.0000 C=    0.0000
 XYZ=    5.1020  -24.2100  -13.9410 Q=   -0.8340 A=    0.0000 R=    0.0000 C=    0.0000
 XYZ=    4.2860  -24.5860  -14.2730 Q=    0.4170 A=    0.0000 R=    0.0000 C=    0.0000
 XYZ=    5.5770  -24.9540  -13.5710 Q=    0.4170 A=    0.0000 R=    0.0000 C=    0.0000
 XYZ=  -11.7830    2.5430  -17.5750 Q=   -0.8340 A=    0.0000 R=    0.0000 C=    0.0000
 XYZ=  -11.3150    1.9990  -18.2080 Q=    0.4170 A=    0.0000 R=    0.0000 C=    0.0000
 XYZ=  -11.5370    2.1850  -16.7220 Q=    0.4170 A=    0.0000 R=    0.0000 C=    0.0000
 XYZ=    6.7990  -21.9970    4.9320 Q=   -0.8340 A=    0.0000 R=    0.0000 C=    0.0000
 XYZ=    6.5480  -21.0880    5.0980 Q=    0.4170 A=    0.0000 R=    0.0000 C=    0.0000
 XYZ=    7.1110  -21.9980    4.0270 Q=    0.4170 A=    0.0000 R=    0.0000 C=    0.0000
 XYZ=    5.2937  -13.1860    2.5077 Q=   -0.8340 A=    0.0000 R=    0.0000 C=    0.0000
 XYZ=    6.2042  -13.0325    2.1736 Q=    0.4170 A=    0.0000 R=    0.0000 C=    0.0000
 XYZ=    5.4720  -13.5206    3.4119 Q=    0.4170 A=    0.0000 R=    0.0000 C=    0.0000
 XYZ=  -11.1612  -27.0983   -7.6161 Q=   -0.8340 A=    0.0000 R=    0.0000 C=    0.0000
 XYZ=  -11.3180  -27.2458   -8.5488 Q=    0.4170 A=    0.0000 R=    0.0000 C=    0.0000
 XYZ=  -10.3485  -27.5693   -7.4320 Q=    0.4170 A=    0.0000 R=    0.0000 C=    0.0000
 XYZ=  -25.2000  -16.9990    1.4350 Q=   -0.8340 A=    0.0000 R=    0.0000 C=    0.0000
 XYZ=  -25.5770  -17.8140    1.1020 Q=    0.4170 A=    0.0000 R=    0.0000 C=    0.0000
 XYZ=  -24.2810  -17.2090    1.5990 Q=    0.4170 A=    0.0000 R=    0.0000 C=    0.0000
 XYZ=   10.6882   -5.7231   -6.7420 Q=   -0.8340 A=    0.0000 R=    0.0000 C=    0.0000
 XYZ=    9.8848   -5.9135   -6.2116 Q=    0.4170 A=    0.0000 R=    0.0000 C=    0.0000
 XYZ=   10.6127   -6.3861   -7.4557 Q=    0.4170 A=    0.0000 R=    0.0000 C=    0.0000
 XYZ=   -9.2558  -12.3901    5.9027 Q=   -0.8340 A=    0.0000 R=    0.0000 C=    0.0000
 XYZ=   -9.3714  -12.7287    4.9886 Q=    0.4170 A=    0.0000 R=    0.0000 C=    0.0000
 XYZ=   -9.5460  -11.4629    5.7716 Q=    0.4170 A=    0.0000 R=    0.0000 C=    0.0000
 XYZ=  -14.2442   -3.7202  -19.2742 Q=   -0.8340 A=    0.0000 R=    0.0000 C=    0.0000
 XYZ=  -14.3203   -4.0073  -20.1842 Q=    0.4170 A=    0.0000 R=    0.0000 C=    0.0000
 XYZ=  -14.3791   -2.7732  -19.3094 Q=    0.4170 A=    0.0000 R=    0.0000 C=    0.0000
 XYZ=   -8.2786  -14.5130  -19.5827 Q=   -0.8340 A=    0.0000 R=    0.0000 C=    0.0000
 XYZ=   -7.6631  -14.2662  -20.2944 Q=    0.4170 A=    0.0000 R=    0.0000 C=    0.0000
 XYZ=   -7.8363  -15.3295  -19.2485 Q=    0.4170 A=    0.0000 R=    0.0000 C=    0.0000
 XYZ=   -4.1330    5.8640    5.6920 Q=   -0.8340 A=    0.0000 R=    0.0000 C=    0.0000
 XYZ=   -3.4210    5.9530    6.3250 Q=    0.4170 A=    0.0000 R=    0.0000 C=    0.0000
 XYZ=   -4.1930    4.9220    5.5300 Q=    0.4170 A=    0.0000 R=    0.0000 C=    0.0000
 XYZ=  -14.9674  -11.6803    1.6271 Q=   -0.8340 A=    0.0000 R=    0.0000 C=    0.0000
 XYZ=  -14.5823  -10.9434    2.1370 Q=    0.4170 A=    0.0000 R=    0.0000 C=    0.0000
 XYZ=  -14.1811  -11.9592    1.1114 Q=    0.4170 A=    0.0000 R=    0.0000 C=    0.0000
 XYZ=   -5.2945  -15.8910   -7.9889 Q=   -0.8340 A=    0.0000 R=    0.0000 C=    0.0000
 XYZ=   -4.5603  -16.4547   -8.2628 Q=    0.4170 A=    0.0000 R=    0.0000 C=    0.0000
 XYZ=   -4.8404  -15.0223   -7.9230 Q=    0.4170 A=    0.0000 R=    0.0000 C=    0.0000
 XYZ=  -17.8094   -4.5437  -15.0439 Q=   -0.8340 A=    0.0000 R=    0.0000 C=    0.0000
 XYZ=  -18.2432   -5.3616  -15.3327 Q=    0.4170 A=    0.0000 R=    0.0000 C=    0.0000
 XYZ=  -18.4830   -3.8786  -15.2975 Q=    0.4170 A=    0.0000 R=    0.0000 C=    0.0000
 XYZ=    5.7472  -16.8093   -8.1381 Q=   -0.8340 A=    0.0000 R=    0.0000 C=    0.0000
 XYZ=    6.3897  -16.1083   -7.8813 Q=    0.4170 A=    0.0000 R=    0.0000 C=    0.0000
 XYZ=    5.0311  -16.5623   -7.5239 Q=    0.4170 A=    0.0000 R=    0.0000 C=    0.0000
 XYZ=  -11.9690  -26.2380  -16.1010 Q=   -0.8340 A=    0.0000 R=    0.0000 C=    0.0000
 XYZ=  -12.9220  -26.3080  -16.0580 Q=    0.4170 A=    0.0000 R=    0.0000 C=    0.0000
 XYZ=  -11.6790  -27.0940  -16.4170 Q=    0.4170 A=    0.0000 R=    0.0000 C=    0.0000
 XYZ=  -13.7270    7.0930  -10.9470 Q=   -0.8340 A=    0.0000 R=    0.0000 C=    0.0000
 XYZ=  -13.7370    7.9660  -11.3390 Q=    0.4170 A=    0.0000 R=    0.0000 C=    0.0000
 XYZ=  -12.8890    6.7180  -11.2160 Q=    0.4170 A=    0.0000 R=    0.0000 C=    0.0000
 XYZ=    7.5890    1.3110  -15.5450 Q=   -0.8340 A=    0.0000 R=    0.0000 C=    0.0000
 XYZ=    8.1750    1.4020  -14.7940 Q=    0.4170 A=    0.0000 R=    0.0000 C=    0.0000
 XYZ=    7.2870    2.2020  -15.7240 Q=    0.4170 A=    0.0000 R=    0.0000 C=    0.0000
 XYZ=  -17.5940  -10.4620   10.7710 Q=   -0.8340 A=    0.0000 R=    0.0000 C=    0.0000
 XYZ=  -17.9620  -10.2380   11.6250 Q=    0.4170 A=    0.0000 R=    0.0000 C=    0.0000
 XYZ=  -16.8110   -9.9170   10.6960 Q=    0.4170 A=    0.0000 R=    0.0000 C=    0.0000
 XYZ=   -4.4890   -0.0580  -22.2840 Q=   -0.8340 A=    0.0000 R=    0.0000 C=    0.0000
 XYZ=   -3.9370   -0.8150  -22.4830 Q=    0.4170 A=    0.0000 R=    0.0000 C=    0.0000
 XYZ=   -5.0980   -0.3750  -21.6170 Q=    0.4170 A=    0.0000 R=    0.0000 C=    0.0000
 XYZ=  -21.8117   -3.6425   -5.1271 Q=   -0.8340 A=    0.0000 R=    0.0000 C=    0.0000
 XYZ=  -22.6922   -3.8736   -5.4232 Q=    0.4170 A=    0.0000 R=    0.0000 C=    0.0000
 XYZ=  -21.2868   -4.4235   -5.3025 Q=    0.4170 A=    0.0000 R=    0.0000 C=    0.0000
 XYZ=  -18.7740   -1.1270  -16.7720 Q=   -0.8340 A=    0.0000 R=    0.0000 C=    0.0000
 XYZ=  -19.3860   -1.7410  -16.3670 Q=    0.4170 A=    0.0000 R=    0.0000 C=    0.0000
 XYZ=  -18.4860   -0.5650  -16.0530 Q=    0.4170 A=    0.0000 R=    0.0000 C=    0.0000
 XYZ=  -16.1155  -23.4797   -3.4881 Q=   -0.8340 A=    0.0000 R=    0.0000 C=    0.0000
 XYZ=  -15.5352  -22.8762   -3.0240 Q=    0.4170 A=    0.0000 R=    0.0000 C=    0.0000
 XYZ=  -15.5677  -24.2414   -3.6776 Q=    0.4170 A=    0.0000 R=    0.0000 C=    0.0000
 XYZ=    9.5420  -21.0270  -12.6220 Q=   -0.8340 A=    0.0000 R=    0.0000 C=    0.0000
 XYZ=   10.3070  -20.4540  -12.5650 Q=    0.4170 A=    0.0000 R=    0.0000 C=    0.0000
 XYZ=    9.6990  -21.5590  -13.4020 Q=    0.4170 A=    0.0000 R=    0.0000 C=    0.0000
 XYZ=  -12.0996   -7.4036    3.7360 Q=   -0.8340 A=    0.0000 R=    0.0000 C=    0.0000
 XYZ=  -11.2268   -7.0094    3.9618 Q=    0.4170 A=    0.0000 R=    0.0000 C=    0.0000
 XYZ=  -12.4046   -7.6429    4.6469 Q=    0.4170 A=    0.0000 R=    0.0000 C=    0.0000
 XYZ=    9.4390   -5.1810    4.5990 Q=   -0.8340 A=    0.0000 R=    0.0000 C=    0.0000
 XYZ=    9.4310   -5.6600    3.7710 Q=    0.4170 A=    0.0000 R=    0.0000 C=    0.0000
 XYZ=    9.3890   -5.8610    5.2710 Q=    0.4170 A=    0.0000 R=    0.0000 C=    0.0000
 XYZ=    0.9803  -16.8264    7.3059 Q=   -0.8340 A=    0.0000 R=    0.0000 C=    0.0000
 XYZ=    0.0884  -16.9454    6.9253 Q=    0.4170 A=    0.0000 R=    0.0000 C=    0.0000
 XYZ=    1.1804  -17.7663    7.5062 Q=    0.4170 A=    0.0000 R=    0.0000 C=    0.0000
 XYZ=   -2.3670  -28.1780   -8.6920 Q=   -0.8340 A=    0.0000 R=    0.0000 C=    0.0000
 XYZ=   -2.3860  -28.7870   -9.4300 Q=    0.4170 A=    0.0000 R=    0.0000 C=    0.0000
 XYZ=   -2.0390  -28.6990   -7.9590 Q=    0.4170 A=    0.0000 R=    0.0000 C=    0.0000
 XYZ=   -3.8471   -6.0372    6.6264 Q=   -0.8340 A=    0.0000 R=    0.0000 C=    0.0000
 XYZ=   -4.4678   -5.3035    6.7807 Q=    0.4170 A=    0.0000 R=    0.0000 C=    0.0000
 XYZ=   -3.5183   -6.2271    7.5232 Q=    0.4170 A=    0.0000 R=    0.0000 C=    0.0000
 XYZ=  -13.4680  -12.0270  -23.1910 Q=   -0.8340 A=    0.0000 R=    0.0000 C=    0.0000
 XYZ=  -14.0470  -12.6070  -22.6960 Q=    0.4170 A=    0.0000 R=    0.0000 C=    0.0000
 XYZ=  -12.6100  -12.4490  -23.1460 Q=    0.4170 A=    0.0000 R=    0.0000 C=    0.0000
 XYZ=   -1.7259  -11.1998   -7.2357 Q=   -0.8340 A=    0.0000 R=    0.0000 C=    0.0000
 XYZ=   -1.5696  -12.1575   -7.0930 Q=    0.4170 A=    0.0000 R=    0.0000 C=    0.0000
 XYZ=   -2.3580  -10.9898   -6.5050 Q=    0.4170 A=    0.0000 R=    0.0000 C=    0.0000
 XYZ=   -6.0928  -17.2504  -14.2459 Q=   -0.8340 A=    0.0000 R=    0.0000 C=    0.0000
 XYZ=   -6.6654  -16.4869  -14.4487 Q=    0.4170 A=    0.0000 R=    0.0000 C=    0.0000
 XYZ=   -6.7223  -17.9712  -14.0518 Q=    0.4170 A=    0.0000 R=    0.0000 C=    0.0000
 XYZ=  -18.4089   -7.0370  -11.2563 Q=   -0.8340 A=    0.0000 R=    0.0000 C=    0.0000
 XYZ=  -18.5146   -7.4418  -12.1418 Q=    0.4170 A=    0.0000 R=    0.0000 C=    0.0000
 XYZ=  -18.1393   -6.1260  -11.5087 Q=    0.4170 A=    0.0000 R=    0.0000 C=    0.0000
 XYZ=  -10.5557    0.4826   -9.3999 Q=   -0.8340 A=    0.0000 R=    0.0000 C=    0.0000
 XYZ=  -10.1481    1.0053   -8.6767 Q=    0.4170 A=    0.0000 R=    0.0000 C=    0.0000
 XYZ=   -9.9097   -0.2487   -9.4648 Q=    0.4170 A=    0.0000 R=    0.0000 C=    0.0000
 XYZ=  -21.7279  -17.6242   -8.9409 Q=   -0.8340 A=    0.0000 R=    0.0000 C=    0.0000
 XYZ=  -20.7859  -17.8853   -8.9587 Q=    0.4170 A=    0.0000 R=    0.0000 C=    0.0000
 XYZ=  -21.6551  -16.6671   -8.7714 Q=    0.4170 A=    0.0000 R=    0.0000 C=    0.0000
 XYZ=   -5.1370  -23.6051    0.6161 Q=   -0.8340 A=    0.0000 R=    0.0000 C=    0.0000
 XYZ=   -4.8946  -24.4457    0.1720 Q=    0.4170 A=    0.0000 R=    0.0000 C=    0.0000
 XYZ=   -5.7784  -23.2141   -0.0096 Q=    0.4170 A=    0.0000 R=    0.0000 C=    0.0000
 XYZ=  -11.8880  -15.4980   11.7450 Q=   -0.8340 A=    0.0000 R=    0.0000 C=    0.0000
 XYZ=  -12.7380  -15.5450   11.3080 Q=    0.4170 A=    0.0000 R=    0.0000 C=    0.0000
 XYZ=  -11.7160  -14.5610   11.8370 Q=    0.4170 A=    0.0000 R=    0.0000 C=    0.0000
 XYZ=    9.7279  -12.1619   -7.4831 Q=   -0.8340 A=    0.0000 R=    0.0000 C=    0.0000
 XYZ=    9.7409  -12.9573   -6.9175 Q=    0.4170 A=    0.0000 R=    0.0000 C=    0.0000
 XYZ=   10.2428  -11.5353   -6.9245 Q=    0.4170 A=    0.0000 R=    0.0000 C=    0.0000
 XYZ=   -2.9129  -20.8797  -13.4004 Q=   -0.8340 A=    0.0000 R=    0.0000 C=    0.0000
 XYZ=   -1.9646  -21.0603  -13.2190 Q=    0.4170 A=    0.0000 R=    0.0000 C=    0.0000
 XYZ=   -2.8405  -19.9401  -13.6844 Q=    0.4170 A=    0.0000 R=    0.0000 C=    0.0000
 XYZ=   -0.0800    2.7290  -16.4170 Q=   -0.8340 A=    0.0000 R=    0.0000 C=    0.0000
 XYZ=    0.8110    2.4130  -16.5680 Q=    0.4170 A=    0.0000 R=    0.0000 C=    0.0000
 XYZ=   -0.0200    3.2370  -15.6080 Q=    0.4170 A=    0.0000 R=    0.0000 C=    0.0000
 XYZ=  -15.5825   -9.2242   -7.9576 Q=   -0.8340 A=    0.0000 R=    0.0000 C=    0.0000
 XYZ=  -14.8193   -9.8369   -8.0362 Q=    0.4170 A=    0.0000 R=    0.0000 C=    0.0000
 XYZ=  -16.2133   -9.7932   -7.4586 Q=    0.4170 A=    0.0000 R=    0.0000 C=    0.0000
 XYZ=   -9.6431  -13.0223    3.2665 Q=   -0.8340 A=    0.0000 R=    0.0000 C=    0.0000
 XYZ=  -10.4089  -12.4115    3.2561 Q=    0.4170 A=    0.0000 R=    0.0000 C=    0.0000
 XYZ=   -9.2434  -12.7958    2.4007 Q=    0.4170 A=    0.0000 R=    0.0000 C=    0.0000
 XYZ=   -6.9900    8.5940  -10.5640 Q=   -0.8340 A=    0.0000 R=    0.0000 C=    0.0000
 XYZ=   -7.2530    7.7260  -10.2590 Q=    0.4170 A=    0.0000 R=    0.0000 C=    0.0000
 XYZ=   -7.7750    8.9510  -10.9790 Q=    0.4170 A=    0.0000 R=    0.0000 C=    0.0000
 XYZ=   -9.4996  -16.2008   -4.6792 Q=   -0.8340 A=    0.0000 R=    0.0000 C=    0.0000
 XYZ=   -9.0932  -16.4582   -3.8248 Q=    0.4170 A=    0.0000 R=    0.0000 C=    0.0000
 XYZ=   -8.6976  -15.9499   -5.1792 Q=    0.4170 A=    0.0000 R=    0.0000 C=    0.0000
 XYZ=   -5.6390  -16.7630   12.5490 Q=   -0.8340 A=    0.0000 R=    0.0000 C=    0.0000
 XYZ=   -5.4510  -16.0280   11.9660 Q=    0.4170 A=    0.0000 R=    0.0000 C=    0.0000
 XYZ=   -4.7780  -17.0980   12.7990 Q=    0.4170 A=    0.0000 R=    0.0000 C=    0.0000
 XYZ=    7.9770   -3.4280    7.8400 Q=   -0.8340 A=    0.0000 R=    0.0000 C=    0.0000
 XYZ=    8.6330   -2.7740    7.6000 Q=    0.4170 A=    0.0000 R=    0.0000 C=    0.0000
 XYZ=    7.5300   -3.6330    7.0190 Q=    0.4170 A=    0.0000 R=    0.0000 C=    0.0000
 XYZ=  -17.1330  -10.1179    6.0289 Q=   -0.8340 A=    0.0000 R=    0.0000 C=    0.0000
 XYZ=  -17.0541  -11.0444    5.7169 Q=    0.4170 A=    0.0000 R=    0.0000 C=    0.0000
 XYZ=  -16.7238   -9.6090    5.2984 Q=    0.4170 A=    0.0000 R=    0.0000 C=    0.0000
 XYZ=  -13.8068   -9.3812    2.8065 Q=   -0.8340 A=    0.0000 R=    0.0000 C=    0.0000
 XYZ=  -14.5781   -9.1384    3.3738 Q=    0.4170 A=    0.0000 R=    0.0000 C=    0.0000
 XYZ=  -13.1988   -8.6516    3.0501 Q=    0.4170 A=    0.0000 R=    0.0000 C=    0.0000
 XYZ=    9.0640  -11.5730    5.2100 Q=   -0.8340 A=    0.0000 R=    0.0000 C=    0.0000
 XYZ=    9.2700  -11.9060    6.0840 Q=    0.4170 A=    0.0000 R=    0.0000 C=    0.0000
 XYZ=    9.2490  -12.3070    4.6240 Q=    0.4170 A=    0.0000 R=    0.0000 C=    0.0000
 XYZ=  -18.5387  -16.0536  -14.6743 Q=   -0.8340 A=    0.0000 R=    0.0000 C=    0.0000
 XYZ=  -18.6763  -15.0819  -14.6290 Q=    0.4170 A=    0.0000 R=    0.0000 C=    0.0000
 XYZ=  -19.3397  -16.3632  -15.1453 Q=    0.4170 A=    0.0000 R=    0.0000 C=    0.0000
 XYZ=   -4.9460    7.1710    1.2470 Q=   -0.8340 A=    0.0000 R=    0.0000 C=    0.0000
 XYZ=   -5.0380    7.0520    2.1920 Q=    0.4170 A=    0.0000 R=    0.0000 C=    0.0000
 XYZ=   -5.6590    7.7640    1.0100 Q=    0.4170 A=    0.0000 R=    0.0000 C=    0.0000
 XYZ=   -1.5504  -17.3062    6.2565 Q=   -0.8340 A=    0.0000 R=    0.0000 C=    0.0000
 XYZ=   -1.2432  -17.5004    5.3517 Q=    0.4170 A=    0.0000 R=    0.0000 C=    0.0000
 XYZ=   -2.2422  -17.9932    6.3236 Q=    0.4170 A=    0.0000 R=    0.0000 C=    0.0000
 XYZ=   10.1910  -18.5640   -8.9970 Q=   -0.8340 A=    0.0000 R=    0.0000 C=    0.0000
 XYZ=   10.2560  -19.2990   -9.6060 Q=    0.4170 A=    0.0000 R=    0.0000 C=    0.0000
 XYZ=    9.6800  -17.9060   -9.4680 Q=    0.4170 A=    0.0000 R=    0.0000 C=    0.0000
 XYZ=   -4.7980   -4.5460   14.4130 Q=   -0.8340 A=    0.0000 R=    0.0000 C=    0.0000
 XYZ=   -5.0430   -5.0620   15.1810 Q=    0.4170 A=    0.0000 R=    0.0000 C=    0.0000
 XYZ=   -4.5650   -5.1970   13.7510 Q=    0.4170 A=    0.0000 R=    0.0000 C=    0.0000
 XYZ=   -3.9017   -8.8040  -21.7840 Q=   -0.8340 A=    0.0000 R=    0.0000 C=    0.0000
 XYZ=   -3.5667   -9.4161  -21.1288 Q=    0.4170 A=    0.0000 R=    0.0000 C=    0.0000
 XYZ=   -3.2649   -8.0894  -21.7926 Q=    0.4170 A=    0.0000 R=    0.0000 C=    0.0000
 XYZ=  -25.9690  -18.4970   -1.7330 Q=   -0.8340 A=    0.0000 R=    0.0000 C=    0.0000
 XYZ=  -26.2680  -18.2900   -2.6180 Q=    0.4170 A=    0.0000 R=    0.0000 C=    0.0000
 XYZ=  -25.1230  -18.0560   -1.6570 Q=    0.4170 A=    0.0000 R=    0.0000 C=    0.0000
 XYZ=  -15.5913   -3.4328   -7.1668 Q=   -0.8340 A=    0.0000 R=    0.0000 C=    0.0000
 XYZ=  -15.6784   -3.7278   -8.0962 Q=    0.4170 A=    0.0000 R=    0.0000 C=    0.0000
 XYZ=  -14.7042   -3.0191   -7.1854 Q=    0.4170 A=    0.0000 R=    0.0000 C=    0.0000
 XYZ=  -25.1130  -15.3660   -0.8340 Q=   -0.8340 A=    0.0000 R=    0.0000 C=    0.0000
 XYZ=  -25.4190  -15.7920   -1.6350 Q=    0.4170 A=    0.0000 R=    0.0000 C=    0.0000
 XYZ=  -25.1990  -16.0380   -0.1570 Q=    0.4170 A=    0.0000 R=    0.0000 C=    0.0000
 XYZ=   -7.6872  -19.7082  -16.2283 Q=   -0.8340 A=    0.0000 R=    0.0000 C=    0.0000
 XYZ=   -6.9394  -19.3107  -16.6960 Q=    0.4170 A=    0.0000 R=    0.0000 C=    0.0000
 XYZ=   -7.3767  -19.6887  -15.2953 Q=    0.4170 A=    0.0000 R=    0.0000 C=    0.0000
 XYZ=  -11.2244   -0.3895   -4.7294 Q=   -0.8340 A=    0.0000 R=    0.0000 C=    0.0000
 XYZ=  -10.5524   -0.9313   -5.1854 Q=    0.4170 A=    0.0000 R=    0.0000 C=    0.0000
 XYZ=  -11.8726   -1.0779   -4.4775 Q=    0.4170 A=    0.0000 R=    0.0000 C=    0.0000
 XYZ=    1.5271   -0.3963  -10.8267 Q=   -0.8340 A=    0.0000 R=    0.0000 C=    0.0000
 XYZ=    0.6128   -0.3974  -11.1933 Q=    0.4170 A=    0.0000 R=    0.0000 C=    0.0000
 XYZ=    1.6836    0.5786  -10.8378 Q=    0.4170 A=    0.0000 R=    0.0000 C=    0.0000
 XYZ=   -5.1331    5.6886   -3.1462 Q=   -0.8340 A=    0.0000 R=    0.0000 C=    0.0000
 XYZ=   -4.3008    5.1948   -2.9976 Q=    0.4170 A=    0.0000 R=    0.0000 C=    0.0000
 XYZ=   -5.7844    4.9576   -3.0692 Q=    0.4170 A=    0.0000 R=    0.0000 C=    0.0000
 XYZ=    5.3170    0.2840  -16.9880 Q=   -0.8340 A=    0.0000 R=    0.0000 C=    0.0000
 XYZ=    4.5690    0.8710  -17.1010 Q=    0.4170 A=    0.0000 R=    0.0000 C=    0.0000
 XYZ=    5.8920    0.7440  -16.3760 Q=    0.4170 A=    0.0000 R=    0.0000 C=    0.0000
 XYZ=   -9.8520    8.8440    1.8950 Q=   -0.8340 A=    0.0000 R=    0.0000 C=    0.0000
 XYZ=  -10.7200    9.0520    2.2430 Q=    0.4170 A=    0.0000 R=    0.0000 C=    0.0000
 XYZ=   -9.8490    7.8910    1.8120 Q=    0.4170 A=    0.0000 R=    0.0000 C=    0.0000
 XYZ=  -18.8466  -22.1459   -7.9884 Q=   -0.8340 A=    0.0000 R=    0.0000 C=    0.0000
 XYZ=  -18.8937  -21.5713   -7.2244 Q=    0.4170 A=    0.0000 R=    0.0000 C=    0.0000
 XYZ=  -19.7592  -22.3532   -8.1895 Q=    0.4170 A=    0.0000 R=    0.0000 C=    0.0000
 XYZ=    0.9530   -4.3560   11.4070 Q=   -0.8340 A=    0.0000 R=    0.0000 C=    0.0000
 XYZ=    0.8480   -3.4320   11.1790 Q=    0.4170 A=    0.0000 R=    0.0000 C=    0.0000
 XYZ=    1.6480   -4.3630   12.0650 Q=    0.4170 A=    0.0000 R=    0.0000 C=    0.0000
 XYZ=   -0.7820    0.8508    1.1702 Q=   -0.8340 A=    0.0000 R=    0.0000 C=    0.0000
 XYZ=   -1.0366    0.7852    2.1201 Q=    0.4170 A=    0.0000 R=    0.0000 C=    0.0000
 XYZ=   -1.3506    1.6152    0.9095 Q=    0.4170 A=    0.0000 R=    0.0000 C=    0.0000
 XYZ=  -19.4450  -19.8340  -18.6330 Q=   -0.8340 A=    0.0000 R=    0.0000 C=    0.0000
 XYZ=  -18.9380  -19.1450  -18.2030 Q=    0.4170 A=    0.0000 R=    0.0000 C=    0.0000
 XYZ=  -20.3540  -19.6420  -18.4030 Q=    0.4170 A=    0.0000 R=    0.0000 C=    0.0000
 XYZ=  -16.8233  -16.7889  -10.7662 Q=   -0.8340 A=    0.0000 R=    0.0000 C=    0.0000
 XYZ=  -16.5413  -17.7208  -10.8424 Q=    0.4170 A=    0.0000 R=    0.0000 C=    0.0000
 XYZ=  -16.1376  -16.3190  -11.2860 Q=    0.4170 A=    0.0000 R=    0.0000 C=    0.0000
 XYZ=   -4.2229    0.3858  -10.1734 Q=   -0.8340 A=    0.0000 R=    0.0000 C=    0.0000
 XYZ=   -5.1547    0.1184  -10.2972 Q=    0.4170 A=    0.0000 R=    0.0000 C=    0.0000
 XYZ=   -4.2859    1.3285  -10.4197 Q=    0.4170 A=    0.0000 R=    0.0000 C=    0.0000
 XYZ=  -22.2888   -6.6294   -7.7979 Q=   -0.8340 A=    0.0000 R=    0.0000 C=    0.0000
 XYZ=  -21.9425   -6.5534   -6.8889 Q=    0.4170 A=    0.0000 R=    0.0000 C=    0.0000
 XYZ=  -21.5081   -7.0046   -8.2531 Q=    0.4170 A=    0.0000 R=    0.0000 C=    0.0000
 XYZ=   10.4640   -3.2980  -17.0380 Q=   -0.8340 A=    0.0000 R=    0.0000 C=    0.0000
 XYZ=    9.9960   -2.6400  -16.5240 Q=    0.4170 A=    0.0000 R=    0.0000 C=    0.0000
 XYZ=    9.8830   -4.0590  -17.0390 Q=    0.4170 A=    0.0000 R=    0.0000 C=    0.0000
 XYZ=  -14.0200  -14.9320    5.0186 Q=   -0.8340 A=    0.0000 R=    0.0000 C=    0.0000
 XYZ=  -14.5536  -15.4931    4.4218 Q=    0.4170 A=    0.0000 R=    0.0000 C=    0.0000
 XYZ=  -13.5172  -14.4368    4.3360 Q=    0.4170 A=    0.0000 R=    0.0000 C=    0.0000
 XYZ=   -7.4902    4.9346   -6.2904 Q=   -0.8340 A=    0.0000 R=    0.0000 C=    0.0000
 XYZ=   -6.9335    4.1236   -6.2607 Q=    0.4170 A=    0.0000 R=    0.0000 C=    0.0000
 XYZ=   -8.0209    4.8178   -5.4751 Q=    0.4170 A=    0.0000 R=    0.0000 C=    0.0000
 XYZ=    0.4480  -27.6550    4.3590 Q=   -0.8340 A=    0.0000 R=    0.0000 C=    0.0000
 XYZ=    0.0130  -28.5030    4.2820 Q=    0.4170 A=    0.0000 R=    0.0000 C=    0.0000
 XYZ=    0.1600  -27.1660    3.5880 Q=    0.4170 A=    0.0000 R=    0.0000 C=    0.0000
 XYZ=   -0.8670   -3.3690  -22.8590 Q=   -0.8340 A=    0.0000 R=    0.0000 C=    0.0000
 XYZ=   -0.3210   -2.8350  -23.4360 Q=    0.4170 A=    0.0000 R=    0.0000 C=    0.0000
 XYZ=   -0.3130   -4.1140  -22.6260 Q=    0.4170 A=    0.0000 R=    0.0000 C=    0.0000
 XYZ=   -5.3020   -4.8598    3.4820 Q=   -0.8340 A=    0.0000 R=    0.0000 C=    0.0000
 XYZ=   -6.2018   -5.1576    3.2201 Q=    0.4170 A=    0.0000 R=    0.0000 C=    0.0000
 XYZ=   -5.0024   -4.4999    2.6164 Q=    0.4170 A=    0.0000 R=    0.0000 C=    0.0000
 XYZ=  -21.3850   -1.0290    5.9340 Q=   -0.8340 A=    0.0000 R=    0.0000 C=    0.0000
 XYZ=  -20.4790   -0.9550    5.6330 Q=    0.4170 A=    0.0000 R=    0.0000 C=    0.0000
 XYZ=  -21.3280   -0.9590    6.8870 Q=    0.4170 A=    0.0000 R=    0.0000 C=    0.0000
 XYZ=    1.7752  -18.6311   -2.3558 Q=   -0.8340 A=    0.0000 R=    0.0000 C=    0.0000
 XYZ=    2.0234  -18.8604   -3.2721 Q=    0.4170 A=    0.0000 R=    0.0000 C=    0.0000
 XYZ=    0.8172  -18.8107   -2.3979 Q=    0.4170 A=    0.0000 R=    0.0000 C=    0.0000
 XYZ=   -1.0775  -10.5886    6.6403 Q=   -0.8340 A=    0.0000 R=    0.0000 C=    0.0000
 XYZ=   -0.7895  -10.4423    5.7149 Q=    0.4170 A=    0.0000 R=    0.0000 C=    0.0000
 XYZ=   -1.0361  -11.5659    6.6935 Q=    0.4170 A=    0.0000 R=    0.0000 C=    0.0000
 XYZ=    9.9160  -17.2030  -17.4370 Q=   -0.8340 A=    0.0000 R=    0.0000 C=    0.0000
 XYZ=   10.5000  -17.1530  -16.6800 Q=    0.4170 A=    0.0000 R=    0.0000 C=    0.0000
 XYZ=   10.4710  -17.5260  -18.1470 Q=    0.4170 A=    0.0000 R=    0.0000 C=    0.0000
 XYZ=    0.7553  -10.1858   -7.7111 Q=   -0.8340 A=    0.0000 R=    0.0000 C=    0.0000
 XYZ=   -0.1274  -10.6192   -7.6497 Q=    0.4170 A=    0.0000 R=    0.0000 C=    0.0000
 XYZ=    1.1581  -10.4910   -6.8700 Q=    0.4170 A=    0.0000 R=    0.0000 C=    0.0000
 XYZ=  -13.3129   -3.8368   -0.3994 Q=   -0.8340 A=    0.0000 R=    0.0000 C=    0.0000
 XYZ=  -13.7332   -3.2381   -1.0415 Q=    0.4170 A=    0.0000 R=    0.0000 C=    0.0000
 XYZ=  -13.4460   -3.3355    0.4323 Q=    0.4170 A=    0.0000 R=    0.0000 C=    0.0000
 XYZ=    2.5280   -0.2490    9.9690 Q=   -0.8340 A=    0.0000 R=    0.0000 C=    0.0000
 XYZ=    3.3950   -0.6560    9.9690 Q=    0.4170 A=    0.0000 R=    0.0000 C=    0.0000
 XYZ=    2.6960    0.6730    9.7720 Q=    0.4170 A=    0.0000 R=    0.0000 C=    0.0000
 XYZ=    6.5970  -12.4080   12.0930 Q=   -0.8340 A=    0.0000 R=    0.0000 C=    0.0000
 XYZ=    5.8020  -12.6770   11.6310 Q=    0.4170 A=    0.0000 R=    0.0000 C=    0.0000
 XYZ=    6.3300  -12.3380   13.0090 Q=    0.4170 A=    0.0000 R=    0.0000 C=    0.0000
 XYZ=  -22.6540   -5.9510    3.8400 Q=   -0.8340 A=    0.0000 R=    0.0000 C=    0.0000
 XYZ=  -22.2600   -6.6000    3.2570 Q=    0.4170 A=    0.0000 R=    0.0000 C=    0.0000
 XYZ=  -22.1030   -5.1750    3.7420 Q=    0.4170 A=    0.0000 R=    0.0000 C=    0.0000
 XYZ=   10.9000  -23.7710  -10.1260 Q=   -0.8340 A=    0.0000 R=    0.0000 C=    0.0000
 XYZ=   10.5590  -23.1230   -9.5100 Q=    0.4170 A=    0.0000 R=    0.0000 C=    0.0000
 XYZ=   11.8490  -23.7350  -10.0110 Q=    0.4170 A=    0.0000 R=    0.0000 C=    0.0000
 XYZ=  -21.4291   -7.9828  -12.6368 Q=   -0.8340 A=    0.0000 R=    0.0000 C=    0.0000
 XYZ=  -21.9836   -8.5343  -13.1886 Q=    0.4170 A=    0.0000 R=    0.0000 C=    0.0000
 XYZ=  -20.5406   -8.1400  -12.9562 Q=    0.4170 A=    0.0000 R=    0.0000 C=    0.0000
 XYZ=  -19.2123  -12.7279  -11.7025 Q=   -0.8340 A=    0.0000 R=    0.0000 C=    0.0000
 XYZ=  -19.5904  -12.3348  -10.8815 Q=    0.4170 A=    0.0000 R=    0.0000 C=    0.0000
 XYZ=  -18.2869  -12.4153  -11.5962 Q=    0.4170 A=    0.0000 R=    0.0000 C=    0.0000
 XYZ=   -2.8548    1.4011   -3.6149 Q=   -0.8340 A=    0.0000 R=    0.0000 C=    0.0000
 XYZ=   -2.8917    0.9073   -4.4630 Q=    0.4170 A=    0.0000 R=    0.0000 C=    0.0000
 XYZ=   -1.9838    1.0864   -3.2914 Q=    0.4170 A=    0.0000 R=    0.0000 C=    0.0000
 XYZ=   -1.8310   -1.0780  -21.3540 Q=   -0.8340 A=    0.0000 R=    0.0000 C=    0.0000
 XYZ=   -1.0370   -0.5570  -21.4780 Q=    0.4170 A=    0.0000 R=    0.0000 C=    0.0000
 XYZ=   -1.7630   -1.7770  -22.0030 Q=    0.4170 A=    0.0000 R=    0.0000 C=    0.0000
 XYZ=  -19.6120  -22.3050  -15.9660 Q=   -0.8340 A=    0.0000 R=    0.0000 C=    0.0000
 XYZ=  -18.8090  -22.7630  -16.2180 Q=    0.4170 A=    0.0000 R=    0.0000 C=    0.0000
 XYZ=  -19.3160  -21.4380  -15.6900 Q=    0.4170 A=    0.0000 R=    0.0000 C=    0.0000
 XYZ=  -11.9289  -21.3617  -15.9438 Q=   -0.8340 A=    0.0000 R=    0.0000 C=    0.0000
 XYZ=  -10.9680  -21.4415  -16.1283 Q=    0.4170 A=    0.0000 R=    0.0000 C=    0.0000
 XYZ=  -12.0538  -22.1888  -15.4390 Q=    0.4170 A=    0.0000 R=    0.0000 C=    0.0000
 XYZ=   -7.9030  -12.4850  -22.8610 Q=   -0.8340 A=    0.0000 R=    0.0000 C=    0.0000
 XYZ=   -7.3680  -12.7750  -23.6010 Q=    0.4170 A=    0.0000 R=    0.0000 C=    0.0000
 XYZ=   -7.3960  -12.7330  -22.0880 Q=    0.4170 A=    0.0000 R=    0.0000 C=    0.0000
 XYZ=  -15.6439   -0.7716  -14.6059 Q=   -0.8340 A=    0.0000 R=    0.0000 C=    0.0000
 XYZ=  -14.8899   -0.7349  -15.2200 Q=    0.4170 A=    0.0000 R=    0.0000 C=    0.0000
 XYZ=  -15.2028   -1.1846  -13.8377 Q=    0.4170 A=    0.0000 R=    0.0000 C=    0.0000
 XYZ=   -5.0382  -24.7293    3.0966 Q=   -0.8340 A=    0.0000 R=    0.0000 C=    0.0000
 XYZ=   -5.2076  -24.2726    2.2431 Q=    0.4170 A=    0.0000 R=    0.0000 C=    0.0000
 XYZ=   -5.9473  -24.9719    3.3536 Q=    0.4170 A=    0.0000 R=    0.0000 C=    0.0000
 XYZ=    0.3710    4.8080  -13.5320 Q=   -0.8340 A=    0.0000 R=    0.0000 C=    0.0000
 XYZ=    0.8550    5.2820  -14.2080 Q=    0.4170 A=    0.0000 R=    0.0000 C=    0.0000
 XYZ=   -0.5490    4.9300  -13.7650 Q=    0.4170 A=    0.0000 R=    0.0000 C=    0.0000
 XYZ=    4.1832   -8.0103    1.7534 Q=   -0.8340 A=    0.0000 R=    0.0000 C=    0.0000
 XYZ=    4.8063   -7.3087    2.0231 Q=    0.4170 A=    0.0000 R=    0.0000 C=    0.0000
 XYZ=    4.3308   -8.6770    2.4587 Q=    0.4170 A=    0.0000 R=    0.0000 C=    0.0000
 XYZ=  -11.7170  -15.1930  -22.4150 Q=   -0.8340 A=    0.0000 R=    0.0000 C=    0.0000
 XYZ=  -10.8950  -15.6220  -22.1770 Q=    0.4170 A=    0.0000 R=    0.0000 C=    0.0000
 XYZ=  -11.4520  -14.3420  -22.7650 Q=    0.4170 A=    0.0000 R=    0.0000 C=    0.0000
 XYZ=    1.6120    1.6970    4.6020 Q=   -0.8340 A=    0.0000 R=    0.0000 C=    0.0000
 XYZ=    0.9040    2.2290    4.2400 Q=    0.4170 A=    0.0000 R=    0.0000 C=    0.0000
 XYZ=    2.3960    1.9920    4.1390 Q=    0.4170 A=    0.0000 R=    0.0000 C=    0.0000
 XYZ=   -8.3740  -28.0310   -8.1660 Q=   -0.8340 A=    0.0000 R=    0.0000 C=    0.0000
 XYZ=   -8.5540  -28.9650   -8.2740 Q=    0.4170 A=    0.0000 R=    0.0000 C=    0.0000
 XYZ=   -8.1760  -27.7210   -9.0500 Q=    0.4170 A=    0.0000 R=    0.0000 C=    0.0000
 XYZ=    2.6418  -14.6450   -4.1230 Q=   -0.8340 A=    0.0000 R=    0.0000 C=    0.0000
 XYZ=    1.8297  -15.1354   -4.3906 Q=    0.4170 A=    0.0000 R=    0.0000 C=    0.0000
 XYZ=    2.9538  -15.2158   -3.3871 Q=    0.4170 A=    0.0000 R=    0.0000 C=    0.0000
 XYZ=  -25.3650   -8.8600   -6.2720 Q=   -0.8340 A=    0.0000 R=    0.0000 C=    0.0000
 XYZ=  -25.4420   -7.9900   -5.8800 Q=    0.4170 A=    0.0000 R=    0.0000 C=    0.0000
 XYZ=  -26.1970   -8.9930   -6.7260 Q=    0.4170 A=    0.0000 R=    0.0000 C=    0.0000
 XYZ=  -19.3960  -16.6070    9.0060 Q=   -0.8340 A=    0.0000 R=    0.0000 C=    0.0000
 XYZ=  -19.8660  -15.9520    9.5210 Q=    0.4170 A=    0.0000 R=    0.0000 C=    0.0000
 XYZ=  -19.2530  -17.3330    9.6130 Q=    0.4170 A=    0.0000 R=    0.0000 C=    0.0000
 XYZ=    2.5651  -11.7115  -16.5796 Q=   -0.8340 A=    0.0000 R=    0.0000 C=    0.0000
 XYZ=    3.2685  -11.5312  -17.2383 Q=    0.4170 A=    0.0000 R=    0.0000 C=    0.0000
 XYZ=    2.7762  -11.0868  -15.8677 Q=    0.4170 A=    0.0000 R=    0.0000 C=    0.0000
 XYZ=    7.6690  -18.8415  -12.1547 Q=   -0.8340 A=    0.0000 R=    0.0000 C=    0.0000
 XYZ=    8.3329  -19.5539  -12.1363 Q=    0.4170 A=    0.0000 R=    0.0000 C=    0.0000
 XYZ=    7.3540  -18.8413  -11.2223 Q=    0.4170 A=    0.0000 R=    0.0000 C=    0.0000
 XYZ=  -11.5605   -4.6412  -19.2430 Q=   -0.8340 A=    0.0000 R=    0.0000 C=    0.0000
 XYZ=  -12.0415   -5.3478  -18.8123 Q=    0.4170 A=    0.0000 R=    0.0000 C=    0.0000
 XYZ=  -12.1276   -3.8753  -19.1533 Q=    0.4170 A=    0.0000 R=    0.0000 C=    0.0000
 XYZ=  -15.9484   -7.1359  -16.8697 Q=   -0.8340 A=    0.0000 R=    0.0000 C=    0.0000
 XYZ=  -16.5846   -6.4616  -17.1573 Q=    0.4170 A=    0.0000 R=    0.0000 C=    0.0000
 XYZ=  -15.8591   -6.9300  -15.9138 Q=    0.4170 A=    0.0000 R=    0.0000 C=    0.0000
 XYZ=    1.3090    6.4170  -15.4410 Q=   -0.8340 A=    0.0000 R=    0.0000 C=    0.0000
 XYZ=    2.2140    6.1390  -15.5840 Q=    0.4170 A=    0.0000 R=    0.0000 C=    0.0000
 XYZ=    0.9860    6.6390  -16.3150 Q=    0.4170 A=    0.0000 R=    0.0000 C=    0.0000
 XYZ=  -10.3324    3.4868    2.4877 Q=   -0.8340 A=    0.0000 R=    0.0000 C=    0.0000
 XYZ=   -9.4146    3.6502    2.7049 Q=    0.4170 A=    0.0000 R=    0.0000 C=    0.0000
 XYZ=  -10.5702    2.7214    3.0111 Q=    0.4170 A=    0.0000 R=    0.0000 C=    0.0000
 XYZ=  -15.4610  -21.2570    4.8910 Q=   -0.8340 A=    0.0000 R=    0.0000 C=    0.0000
 XYZ=  -15.3080  -20.3370    5.1070 Q=    0.4170 A=    0.0000 R=    0.0000 C=    0.0000
 XYZ=  -15.5640  -21.6890    5.7390 Q=    0.4170 A=    0.0000 R=    0.0000 C=    0.0000
 XYZ=   -5.6643    1.0451   -3.5353 Q=   -0.8340 A=    0.0000 R=    0.0000 C=    0.0000
 XYZ=   -4.7670    1.2765   -3.8399 Q=    0.4170 A=    0.0000 R=    0.0000 C=    0.0000
 XYZ=   -5.4331    0.6757   -2.6589 Q=    0.4170 A=    0.0000 R=    0.0000 C=    0.0000
 XYZ=   -0.7239  -12.3103    9.8992 Q=   -0.8340 A=    0.0000 R=    0.0000 C=    0.0000
 XYZ=   -0.9480  -12.6602   10.7615 Q=    0.4170 A=    0.0000 R=    0.0000 C=    0.0000
 XYZ=   -1.4140  -11.6740    9.7116 Q=    0.4170 A=    0.0000 R=    0.0000 C=    0.0000
 XYZ=  -15.9028   -8.4013    4.2468 Q=   -0.8340 A=    0.0000 R=    0.0000 C=    0.0000
 XYZ=  -16.5253   -8.0614    3.5677 Q=    0.4170 A=    0.0000 R=    0.0000 C=    0.0000
 XYZ=  -15.8022   -7.6086    4.8275 Q=    0.4170 A=    0.0000 R=    0.0000 C=    0.0000
 XYZ=    1.0361   -2.6836   -3.1627 Q=   -0.8340 A=    0.0000 R=    0.0000 C=    0.0000
 XYZ=    0.6933   -3.1100   -2.3511 Q=    0.4170 A=    0.0000 R=    0.0000 C=    0.0000
 XYZ=    0.9307   -3.3810   -3.8315 Q=    0.4170 A=    0.0000 R=    0.0000 C=    0.0000
 XYZ=   -8.4342   -9.4526   -5.4949 Q=   -0.8340 A=    0.0000 R=    0.0000 C=    0.0000
 XYZ=   -8.6240  -10.3305   -5.1109 Q=    0.4170 A=    0.0000 R=    0.0000 C=    0.0000
 XYZ=   -9.1079   -8.9114   -5.0276 Q=    0.4170 A=    0.0000 R=    0.0000 C=    0.0000
 XYZ=    2.8820  -11.8885    2.5368 Q=   -0.8340 A=    0.0000 R=    0.0000 C=    0.0000
 XYZ=    3.1805  -11.0186    2.8851 Q=    0.4170 A=    0.0000 R=    0.0000 C=    0.0000
 XYZ=    3.7519  -12.3505    2.4817 Q=    0.4170 A=    0.0000 R=    0.0000 C=    0.0000
 XYZ=  -15.6594   -5.1552   -2.2762 Q=   -0.8340 A=    0.0000 R=    0.0000 C=    0.0000
 XYZ=  -15.6193   -5.2073   -3.2571 Q=    0.4170 A=    0.0000 R=    0.0000 C=    0.0000
 XYZ=  -15.4214   -4.2161   -2.1547 Q=    0.4170 A=    0.0000 R=    0.0000 C=    0.0000
 XYZ=   -9.7917   -6.1186    4.4705 Q=   -0.8340 A=    0.0000 R=    0.0000 C=    0.0000
 XYZ=   -9.5577   -6.4597    5.3617 Q=    0.4170 A=    0.0000 R=    0.0000 C=    0.0000
 XYZ=   -9.9503   -5.1707    4.6778 Q=    0.4170 A=    0.0000 R=    0.0000 C=    0.0000
 XYZ=   -5.5562   -3.8463    6.0057 Q=   -0.8340 A=    0.0000 R=    0.0000 C=    0.0000
 XYZ=   -5.4331   -4.2944    5.1417 Q=    0.4170 A=    0.0000 R=    0.0000 C=    0.0000
 XYZ=   -6.3448   -3.3107    5.7967 Q=    0.4170 A=    0.0000 R=    0.0000 C=    0.0000
 XYZ=  -17.4910  -15.4660   12.6730 Q=   -0.8340 A=    0.0000 R=    0.0000 C=    0.0000
 XYZ=  -16.7190  -15.7240   12.1700 Q=    0.4170 A=    0.0000 R=    0.0000 C=    0.0000
 XYZ=  -17.5990  -14.5340   12.4870 Q=    0.4170 A=    0.0000 R=    0.0000 C=    0.0000
 XYZ=   -8.6000    0.1760   10.7290 Q=   -0.8340 A=    0.0000 R=    0.0000 C=    0.0000
 XYZ=   -8.4150   -0.6320   11.2070 Q=    0.4170 A=    0.0000 R=    0.0000 C=    0.0000
 XYZ=   -9.5520    0.2650   10.7670 Q=    0.4170 A=    0.0000 R=    0.0000 C=    0.0000
 XYZ=    6.0930   -3.7030    5.7490 Q=   -0.8340 A=    0.0000 R=    0.0000 C=    0.0000
 XYZ=    5.1680   -3.9240    5.8550 Q=    0.4170 A=    0.0000 R=    0.0000 C=    0.0000
 XYZ=    6.1690   -3.4210    4.8370 Q=    0.4170 A=    0.0000 R=    0.0000 C=    0.0000
 XYZ=  -17.5930    0.9160    2.9500 Q=   -0.8340 A=    0.0000 R=    0.0000 C=    0.0000
 XYZ=  -18.2470    0.3290    2.5710 Q=    0.4170 A=    0.0000 R=    0.0000 C=    0.0000
 XYZ=  -16.7980    0.7490    2.4430 Q=    0.4170 A=    0.0000 R=    0.0000 C=    0.0000
 XYZ=  -19.5670   -0.6120    1.9540 Q=   -0.8340 A=    0.0000 R=    0.0000 C=    0.0000
 XYZ=  -20.3530   -0.2250    2.3390 Q=    0.4170 A=    0.0000 R=    0.0000 C=    0.0000
 XYZ=  -19.6400   -1.5470    2.1450 Q=    0.4170 A=    0.0000 R=    0.0000 C=    0.0000
 XYZ=    1.4040  -21.4300    9.6810 Q=   -0.8340 A=    0.0000 R=    0.0000 C=    0.0000
 XYZ=    0.6470  -21.9580    9.9350 Q=    0.4170 A=    0.0000 R=    0.0000 C=    0.0000
 XYZ=    1.0260  -20.6310    9.3130 Q=    0.4170 A=    0.0000 R=    0.0000 C=    0.0000
 XYZ=   -2.0240  -26.0070    5.4800 Q=   -0.8340 A=    0.0000 R=    0.0000 C=    0.0000
 XYZ=   -1.2350  -25.4790    5.6040 Q=    0.4170 A=    0.0000 R=    0.0000 C=    0.0000
 XYZ=   -2.5400  -25.5200    4.8380 Q=    0.4170 A=    0.0000 R=    0.0000 C=    0.0000
 XYZ=  -10.0860  -23.8170    7.2300 Q=   -0.8340 A=    0.0000 R=    0.0000 C=    0.0000
 XYZ=  -10.7560  -23.9360    6.5570 Q=    0.4170 A=    0.0000 R=    0.0000 C=    0.0000
 XYZ=   -9.5910  -23.0490    6.9440 Q=    0.4170 A=    0.0000 R=    0.0000 C=    0.0000
 XYZ=   -3.3370   -2.0370   13.9800 Q=   -0.8340 A=    0.0000 R=    0.0000 C=    0.0000
 XYZ=   -3.3660   -2.9850   14.1100 Q=    0.4170 A=    0.0000 R=    0.0000 C=    0.0000
 XYZ=   -4.1360   -1.8370   13.4910 Q=    0.4170 A=    0.0000 R=    0.0000 C=    0.0000
 XYZ=  -21.0530   -8.0354   -3.2977 Q=   -0.8340 A=    0.0000 R=    0.0000 C=    0.0000
 XYZ=  -20.5457   -8.7755   -3.6696 Q=    0.4170 A=    0.0000 R=    0.0000 C=    0.0000
 XYZ=  -21.9137   -8.4592   -3.1170 Q=    0.4170 A=    0.0000 R=    0.0000 C=    0.0000
 XYZ=   -4.1480    2.7410  -18.7640 Q=   -0.8340 A=    0.0000 R=    0.0000 C=    0.0000
 XYZ=   -3.7730    1.9060  -19.0450 Q=    0.4170 A=    0.0000 R=    0.0000 C=    0.0000
 XYZ=   -5.0790    2.6680  -18.9720 Q=    0.4170 A=    0.0000 R=    0.0000 C=    0.0000
 XYZ=    3.9840  -29.0590   -1.9990 Q=   -0.8340 A=    0.0000 R=    0.0000 C=    0.0000
 XYZ=    4.2030  -29.2690   -1.0910 Q=    0.4170 A=    0.0000 R=    0.0000 C=    0.0000
 XYZ=    3.1010  -28.6910   -1.9530 Q=    0.4170 A=    0.0000 R=    0.0000 C=    0.0000
 XYZ=   -7.2433   -9.2434   -1.3363 Q=   -0.8340 A=    0.0000 R=    0.0000 C=    0.0000
 XYZ=   -6.7139   -8.7124   -1.9742 Q=    0.4170 A=    0.0000 R=    0.0000 C=    0.0000
 XYZ=   -7.0899  -10.1505   -1.6726 Q=    0.4170 A=    0.0000 R=    0.0000 C=    0.0000
 XYZ=  -20.2620  -12.1820   10.5730 Q=   -0.8340 A=    0.0000 R=    0.0000 C=    0.0000
 XYZ=  -19.6420  -11.4660   10.4320 Q=    0.4170 A=    0.0000 R=    0.0000 C=    0.0000
 XYZ=  -21.0360  -11.9310   10.0690 Q=    0.4170 A=    0.0000 R=    0.0000 C=    0.0000
 XYZ=    0.6780  -10.3710   15.2920 Q=   -0.8340 A=    0.0000 R=    0.0000 C=    0.0000
 XYZ=    1.1940   -9.7400   14.7890 Q=    0.4170 A=    0.0000 R=    0.0000 C=    0.0000
 XYZ=   -0.0710  -10.5700   14.7300 Q=    0.4170 A=    0.0000 R=    0.0000 C=    0.0000
 XYZ=   -2.6820    7.1950  -14.2660 Q=   -0.8340 A=    0.0000 R=    0.0000 C=    0.0000
 XYZ=   -2.3240    7.6690  -13.5150 Q=    0.4170 A=    0.0000 R=    0.0000 C=    0.0000
 XYZ=   -2.6120    7.8110  -14.9950 Q=    0.4170 A=    0.0000 R=    0.0000 C=    0.0000
 XYZ=   -2.5120    5.6755    0.4693 Q=   -0.8340 A=    0.0000 R=    0.0000 C=    0.0000
 XYZ=   -3.2306    5.8909    1.0638 Q=    0.4170 A=    0.0000 R=    0.0000 C=    0.0000
 XYZ=   -2.6068    6.2933   -0.2556 Q=    0.4170 A=    0.0000 R=    0.0000 C=    0.0000
 XYZ=  -21.0490    4.3520   -5.4650 Q=   -0.8340 A=    0.0000 R=    0.0000 C=    0.0000
 XYZ=  -21.4380    4.5330   -4.6090 Q=    0.4170 A=    0.0000 R=    0.0000 C=    0.0000
 XYZ=  -21.2240    3.4240   -5.6170 Q=    0.4170 A=    0.0000 R=    0.0000 C=    0.0000
 XYZ=    4.6680   -3.0370  -21.6000 Q=   -0.8340 A=    0.0000 R=    0.0000 C=    0.0000
 XYZ=    4.7620   -3.9880  -21.6580 Q=    0.4170 A=    0.0000 R=    0.0000 C=    0.0000
 XYZ=    4.9800   -2.8180  -20.7220 Q=    0.4170 A=    0.0000 R=    0.0000 C=    0.0000
 XYZ=  -12.9651   -4.6804  -10.5713 Q=   -0.8340 A=    0.0000 R=    0.0000 C=    0.0000
 XYZ=  -13.7819   -4.4360  -10.1102 Q=    0.4170 A=    0.0000 R=    0.0000 C=    0.0000
 XYZ=  -13.3347   -4.8476  -11.4624 Q=    0.4170 A=    0.0000 R=    0.0000 C=    0.0000
 XYZ=  -23.3730  -19.8920   -9.9050 Q=   -0.8340 A=    0.0000 R=    0.0000 C=    0.0000
 XYZ=  -22.5640  -20.4030   -9.8870 Q=    0.4170 A=    0.0000 R=    0.0000 C=    0.0000
 XYZ=  -23.1410  -19.0600   -9.4920 Q=    0.4170 A=    0.0000 R=    0.0000 C=    0.0000
 XYZ=    0.4101   -9.3769  -14.7715 Q=   -0.8340 A=    0.0000 R=    0.0000 C=    0.0000
 XYZ=    0.4037   -8.4603  -14.4266 Q=    0.4170 A=    0.0000 R=    0.0000 C=    0.0000
 XYZ=    1.3423   -9.6276  -14.5996 Q=    0.4170 A=    0.0000 R=    0.0000 C=    0.0000
 XYZ=  -10.9470  -10.3225    0.2505 Q=   -0.8340 A=    0.0000 R=    0.0000 C=    0.0000
 XYZ=  -10.7725  -10.1162   -0.6926 Q=    0.4170 A=    0.0000 R=    0.0000 C=    0.0000
 XYZ=  -10.9967   -9.4168    0.6254 Q=    0.4170 A=    0.0000 R=    0.0000 C=    0.0000
 XYZ=   -8.1880  -28.0300    0.0020 Q=   -0.8340 A=    0.0000 R=    0.0000 C=    0.0000
 XYZ=   -8.2620  -27.0780    0.0610 Q=    0.4170 A=    0.0000 R=    0.0000 C=    0.0000
 XYZ=   -8.6770  -28.3560    0.7570 Q=    0.4170 A=    0.0000 R=    0.0000 C=    0.0000
 XYZ=   -8.3120  -29.6280  -12.9200 Q=   -0.8340 A=    0.0000 R=    0.0000 C=    0.0000
 XYZ=   -8.1490  -30.3970  -13.4670 Q=    0.4170 A=    0.0000 R=    0.0000 C=    0.0000
 XYZ=   -8.4190  -28.9090  -13.5430 Q=    0.4170 A=    0.0000 R=    0.0000 C=    0.0000
 XYZ=  -12.9180    1.6730    7.8890 Q=   -0.8340 A=    0.0000 R=    0.0000 C=    0.0000
 XYZ=  -13.7500    1.9050    8.3020 Q=    0.4170 A=    0.0000 R=    0.0000 C=    0.0000
 XYZ=  -12.9800    2.0320    7.0040 Q=    0.4170 A=    0.0000 R=    0.0000 C=    0.0000
 XYZ=  -23.0290  -13.8960    5.3640 Q=   -0.8340 A=    0.0000 R=    0.0000 C=    0.0000
 XYZ=  -23.7770  -13.9570    4.7700 Q=    0.4170 A=    0.0000 R=    0.0000 C=    0.0000
 XYZ=  -22.8850  -14.7940    5.6620 Q=    0.4170 A=    0.0000 R=    0.0000 C=    0.0000
 XYZ=  -24.3620  -20.6050   -0.0660 Q=   -0.8340 A=    0.0000 R=    0.0000 C=    0.0000
 XYZ=  -23.8680  -20.3730    0.7200 Q=    0.4170 A=    0.0000 R=    0.0000 C=    0.0000
 XYZ=  -24.4960  -19.7730   -0.5190 Q=    0.4170 A=    0.0000 R=    0.0000 C=    0.0000
 XYZ=    7.7152  -21.3941   -5.9600 Q=   -0.8340 A=    0.0000 R=    0.0000 C=    0.0000
 XYZ=    8.0873  -21.3034   -5.0587 Q=    0.4170 A=    0.0000 R=    0.0000 C=    0.0000
 XYZ=    6.7822  -21.1740   -5.7986 Q=    0.4170 A=    0.0000 R=    0.0000 C=    0.0000
 XYZ=  -13.9746    1.3079  -12.6079 Q=   -0.8340 A=    0.0000 R=    0.0000 C=    0.0000
 XYZ=  -14.3691    1.6311  -13.4179 Q=    0.4170 A=    0.0000 R=    0.0000 C=    0.0000
 XYZ=  -13.0315    1.3761  -12.7564 Q=    0.4170 A=    0.0000 R=    0.0000 C=    0.0000
 XYZ=  -14.8580    2.0090  -20.8300 Q=   -0.8340 A=    0.0000 R=    0.0000 C=    0.0000
 XYZ=  -14.0230    1.7280  -21.2040 Q=    0.4170 A=    0.0000 R=    0.0000 C=    0.0000
 XYZ=  -14.6720    2.1420  -19.9010 Q=    0.4170 A=    0.0000 R=    0.0000 C=    0.0000
 XYZ=   -9.9554  -18.6593   -0.4545 Q=   -0.8340 A=    0.0000 R=    0.0000 C=    0.0000
 XYZ=  -10.3423  -18.0755    0.2378 Q=    0.4170 A=    0.0000 R=    0.0000 C=    0.0000
 XYZ=  -10.7903  -18.8985   -0.9217 Q=    0.4170 A=    0.0000 R=    0.0000 C=    0.0000
 XYZ=  -14.8461    0.3951   -5.7225 Q=   -0.8340 A=    0.0000 R=    0.0000 C=    0.0000
 XYZ=  -15.6652    0.7589   -6.1308 Q=    0.4170 A=    0.0000 R=    0.0000 C=    0.0000
 XYZ=  -14.2370    0.3983   -6.4804 Q=    0.4170 A=    0.0000 R=    0.0000 C=    0.0000
 XYZ=  -19.9977  -11.8015   -9.2682 Q=   -0.8340 A=    0.0000 R=    0.0000 C=    0.0000
 XYZ=  -19.4819  -12.3252   -8.6216 Q=    0.4170 A=    0.0000 R=    0.0000 C=    0.0000
 XYZ=  -20.2206  -11.0308   -8.7071 Q=    0.4170 A=    0.0000 R=    0.0000 C=    0.0000
 XYZ=   -2.2690    4.4100  -14.8550 Q=   -0.8340 A=    0.0000 R=    0.0000 C=    0.0000
 XYZ=   -2.4540    4.1560  -15.7600 Q=    0.4170 A=    0.0000 R=    0.0000 C=    0.0000
 XYZ=   -2.4500    5.3500  -14.8280 Q=    0.4170 A=    0.0000 R=    0.0000 C=    0.0000
 XYZ=   -2.7490  -26.2750    2.2870 Q=   -0.8340 A=    0.0000 R=    0.0000 C=    0.0000
 XYZ=   -3.4630  -25.7260    2.6130 Q=    0.4170 A=    0.0000 R=    0.0000 C=    0.0000
 XYZ=   -3.0180  -27.1690    2.4990 Q=    0.4170 A=    0.0000 R=    0.0000 C=    0.0000
 XYZ=   -4.3000  -28.3430    5.8880 Q=   -0.8340 A=    0.0000 R=    0.0000 C=    0.0000
 XYZ=   -5.0030  -27.8190    6.2710 Q=    0.4170 A=    0.0000 R=    0.0000 C=    0.0000
 XYZ=   -3.4970  -27.9740    6.2570 Q=    0.4170 A=    0.0000 R=    0.0000 C=    0.0000
 XYZ=    5.5100   -8.5450   10.7390 Q=   -0.8340 A=    0.0000 R=    0.0000 C=    0.0000
 XYZ=    6.3520   -8.1410   10.9490 Q=    0.4170 A=    0.0000 R=    0.0000 C=    0.0000
 XYZ=    4.8700   -8.0370   11.2380 Q=    0.4170 A=    0.0000 R=    0.0000 C=    0.0000
 XYZ=  -11.9191  -24.7030  -11.1525 Q=   -0.8340 A=    0.0000 R=    0.0000 C=    0.0000
 XYZ=  -10.9820  -24.5713  -11.3972 Q=    0.4170 A=    0.0000 R=    0.0000 C=    0.0000
 XYZ=  -12.4008  -24.4040  -11.9495 Q=    0.4170 A=    0.0000 R=    0.0000 C=    0.0000
 XYZ=    9.6550   -6.9970    2.5790 Q=   -0.8340 A=    0.0000 R=    0.0000 C=    0.0000
 XYZ=    9.8380   -7.5340    1.8080 Q=    0.4170 A=    0.0000 R=    0.0000 C=    0.0000
 XYZ=    9.7230   -7.6040    3.3160 Q=    0.4170 A=    0.0000 R=    0.0000 C=    0.0000
 XYZ=    3.7140  -13.5430   10.9360 Q=   -0.8340 A=    0.0000 R=    0.0000 C=    0.0000
 XYZ=    3.6540  -12.7150   10.4600 Q=    0.4170 A=    0.0000 R=    0.0000 C=    0.0000
 XYZ=    4.0570  -14.1650   10.2940 Q=    0.4170 A=    0.0000 R=    0.0000 C=    0.0000
 XYZ=  -23.0860  -12.2940  -18.5540 Q=   -0.8340 A=    0.0000 R=    0.0000 C=    0.0000
 XYZ=  -22.4140  -12.9750  -18.5280 Q=    0.4170 A=    0.0000 R=    0.0000 C=    0.0000
 XYZ=  -23.0630  -11.9010  -17.6820 Q=    0.4170 A=    0.0000 R=    0.0000 C=    0.0000
 XYZ=  -24.9650  -14.7890   -9.7490 Q=   -0.8340 A=    0.0000 R=    0.0000 C=    0.0000
 XYZ=  -25.8500  -14.5790  -10.0470 Q=    0.4170 A=    0.0000 R=    0.0000 C=    0.0000
 XYZ=  -24.3950  -14.4740  -10.4500 Q=    0.4170 A=    0.0000 R=    0.0000 C=    0.0000
 XYZ=  -19.5893   -3.4362   -0.0516 Q=   -0.8340 A=    0.0000 R=    0.0000 C=    0.0000
 XYZ=  -20.3276   -3.2910   -0.6805 Q=    0.4170 A=    0.0000 R=    0.0000 C=    0.0000
 XYZ=  -19.1741   -4.2231   -0.4596 Q=    0.4170 A=    0.0000 R=    0.0000 C=    0.0000
 XYZ=  -19.6274  -10.1416   -5.3221 Q=   -0.8340 A=    0.0000 R=    0.0000 C=    0.0000
 XYZ=  -18.7497  -10.2493   -5.6887 Q=    0.4170 A=    0.0000 R=    0.0000 C=    0.0000
 XYZ=  -20.1670   -9.8741   -6.0660 Q=    0.4170 A=    0.0000 R=    0.0000 C=    0.0000
 XYZ=   -4.8010  -20.5490  -23.9420 Q=   -0.8340 A=    0.0000 R=    0.0000 C=    0.0000
 XYZ=   -5.5920  -20.6450  -23.4110 Q=    0.4170 A=    0.0000 R=    0.0000 C=    0.0000
 XYZ=   -4.9420  -21.1320  -24.6880 Q=    0.4170 A=    0.0000 R=    0.0000 C=    0.0000
 XYZ=  -12.6427  -18.7047  -15.5557 Q=   -0.8340 A=    0.0000 R=    0.0000 C=    0.0000
 XYZ=  -11.6994  -18.4945  -15.3911 Q=    0.4170 A=    0.0000 R=    0.0000 C=    0.0000
 XYZ=  -12.5757  -19.6836  -15.5499 Q=    0.4170 A=    0.0000 R=    0.0000 C=    0.0000
 XYZ=   -5.5488   -2.2669   -0.6878 Q=   -0.8340 A=    0.0000 R=    0.0000 C=    0.0000
 XYZ=   -5.2657   -2.9676   -0.0567 Q=    0.4170 A=    0.0000 R=    0.0000 C=    0.0000
 XYZ=   -6.4062   -2.6277   -0.9910 Q=    0.4170 A=    0.0000 R=    0.0000 C=    0.0000
 XYZ=    6.9063  -11.0944   -5.6185 Q=   -0.8340 A=    0.0000 R=    0.0000 C=    0.0000
 XYZ=    7.0568  -11.1466   -4.6542 Q=    0.4170 A=    0.0000 R=    0.0000 C=    0.0000
 XYZ=    7.5313  -10.3882   -5.8787 Q=    0.4170 A=    0.0000 R=    0.0000 C=    0.0000
 XYZ=  -17.4977   -7.9369    2.0686 Q=   -0.8340 A=    0.0000 R=    0.0000 C=    0.0000
 XYZ=  -17.5286   -8.8825    1.8055 Q=    0.4170 A=    0.0000 R=    0.0000 C=    0.0000
 XYZ=  -17.0691   -7.5169    1.3047 Q=    0.4170 A=    0.0000 R=    0.0000 C=    0.0000
 XYZ=  -26.0000  -12.6050   -3.2670 Q=   -0.8340 A=    0.0000 R=    0.0000 C=    0.0000
 XYZ=  -26.3100  -13.4720   -3.5300 Q=    0.4170 A=    0.0000 R=    0.0000 C=    0.0000
 XYZ=  -25.8720  -12.1360   -4.0910 Q=    0.4170 A=    0.0000 R=    0.0000 C=    0.0000
 XYZ=  -20.3580  -14.5385   -5.7909 Q=   -0.8340 A=    0.0000 R=    0.0000 C=    0.0000
 XYZ=  -20.0749  -15.4266   -5.5730 Q=    0.4170 A=    0.0000 R=    0.0000 C=    0.0000
 XYZ=  -20.8162  -14.6309   -6.6262 Q=    0.4170 A=    0.0000 R=    0.0000 C=    0.0000
 XYZ=  -23.3750   -8.5470   -0.0180 Q=   -0.8340 A=    0.0000 R=    0.0000 C=    0.0000
 XYZ=  -23.5100   -8.7290   -0.9480 Q=    0.4170 A=    0.0000 R=    0.0000 C=    0.0000
 XYZ=  -23.4410   -9.4020    0.4070 Q=    0.4170 A=    0.0000 R=    0.0000 C=    0.0000
 XYZ=  -23.7090  -13.2800   -7.9040 Q=   -0.8340 A=    0.0000 R=    0.0000 C=    0.0000
 XYZ=  -24.0080  -13.4850   -7.0180 Q=    0.4170 A=    0.0000 R=    0.0000 C=    0.0000
 XYZ=  -24.3560  -13.6910   -8.4770 Q=    0.4170 A=    0.0000 R=    0.0000 C=    0.0000
 XYZ=  -23.6590   -9.0910   -2.6920 Q=   -0.8340 A=    0.0000 R=    0.0000 C=    0.0000
 XYZ=  -23.3180   -9.7410   -3.3050 Q=    0.4170 A=    0.0000 R=    0.0000 C=    0.0000
 XYZ=  -24.3510   -8.6420   -3.1770 Q=    0.4170 A=    0.0000 R=    0.0000 C=    0.0000
 XYZ=    4.9150  -14.0280    8.2560 Q=   -0.8340 A=    0.0000 R=    0.0000 C=    0.0000
 XYZ=    4.1670  -13.5140    7.9510 Q=    0.4170 A=    0.0000 R=    0.0000 C=    0.0000
 XYZ=    5.6700  -13.4540    8.1260 Q=    0.4170 A=    0.0000 R=    0.0000 C=    0.0000
 XYZ=  -12.5479  -23.0949   -9.0710 Q=   -0.8340 A=    0.0000 R=    0.0000 C=    0.0000
 XYZ=  -12.6734  -22.2213   -9.4944 Q=    0.4170 A=    0.0000 R=    0.0000 C=    0.0000
 XYZ=  -12.3630  -23.6802   -9.8406 Q=    0.4170 A=    0.0000 R=    0.0000 C=    0.0000
 XYZ=  -14.4970   -2.2930    9.1850 Q=   -0.8340 A=    0.0000 R=    0.0000 C=    0.0000
 XYZ=  -14.5760   -1.4150    9.5570 Q=    0.4170 A=    0.0000 R=    0.0000 C=    0.0000
 XYZ=  -15.2040   -2.3460    8.5420 Q=    0.4170 A=    0.0000 R=    0.0000 C=    0.0000
 XYZ=  -11.3290  -22.8700   10.1860 Q=   -0.8340 A=    0.0000 R=    0.0000 C=    0.0000
 XYZ=  -10.9070  -22.2050   10.7290 Q=    0.4170 A=    0.0000 R=    0.0000 C=    0.0000
 XYZ=  -10.6260  -23.4800    9.9620 Q=    0.4170 A=    0.0000 R=    0.0000 C=    0.0000
 XYZ=  -15.6334  -14.3078  -19.8361 Q=   -0.8340 A=    0.0000 R=    0.0000 C=    0.0000
 XYZ=  -16.1293  -13.6574  -20.3630 Q=    0.4170 A=    0.0000 R=    0.0000 C=    0.0000
 XYZ=  -15.3105  -13.7218  -19.1071 Q=    0.4170 A=    0.0000 R=    0.0000 C=    0.0000
 XYZ=   -2.0060  -23.6130  -17.4660 Q=   -0.8340 A=    0.0000 R=    0.0000 C=    0.0000
 XYZ=   -2.9610  -23.5570  -17.4660 Q=    0.4170 A=    0.0000 R=    0.0000 C=    0.0000
 XYZ=   -1.7510  -23.3820  -16.5730 Q=    0.4170 A=    0.0000 R=    0.0000 C=    0.0000
 XYZ=  -14.9600   -0.3710    5.3140 Q=   -0.8340 A=    0.0000 R=    0.0000 C=    0.0000
 XYZ=  -15.1870   -0.4510    4.3870 Q=    0.4170 A=    0.0000 R=    0.0000 C=    0.0000
 XYZ=  -15.4720    0.3750    5.6230 Q=    0.4170 A=    0.0000 R=    0.0000 C=    0.0000
 XYZ=  -21.4650   -3.4030   -2.2850 Q=   -0.8340 A=    0.0000 R=    0.0000 C=    0.0000
 XYZ=  -22.2930   -3.7540   -1.9570 Q=    0.4170 A=    0.0000 R=    0.0000 C=    0.0000
 XYZ=  -21.5200   -3.5080   -3.2350 Q=    0.4170 A=    0.0000 R=    0.0000 C=    0.0000
 XYZ=  -12.6149  -12.4689   -2.3364 Q=   -0.8340 A=    0.0000 R=    0.0000 C=    0.0000
 XYZ=  -13.3024  -11.7680   -2.2629 Q=    0.4170 A=    0.0000 R=    0.0000 C=    0.0000
 XYZ=  -13.1556  -13.2631   -2.5342 Q=    0.4170 A=    0.0000 R=    0.0000 C=    0.0000
 XYZ=   -6.1020  -18.1060  -23.3830 Q=   -0.8340 A=    0.0000 R=    0.0000 C=    0.0000
 XYZ=   -5.2600  -18.5080  -23.5950 Q=    0.4170 A=    0.0000 R=    0.0000 C=    0.0000
 XYZ=   -5.8740  -17.2630  -22.9920 Q=    0.4170 A=    0.0000 R=    0.0000 C=    0.0000
 XYZ=  -11.0856   -5.8849   11.0040 Q=   -0.8340 A=    0.0000 R=    0.0000 C=    0.0000
 XYZ=  -10.5184   -6.5540   11.3870 Q=    0.4170 A=    0.0000 R=    0.0000 C=    0.0000
 XYZ=  -10.5477   -5.4725   10.3281 Q=    0.4170 A=    0.0000 R=    0.0000 C=    0.0000
 XYZ=    5.3720    2.0328   -3.4420 Q=   -0.8340 A=    0.0000 R=    0.0000 C=    0.0000
 XYZ=    5.0112    2.0749   -4.3511 Q=    0.4170 A=    0.0000 R=    0.0000 C=    0.0000
 XYZ=    4.6056    2.3726   -2.9322 Q=    0.4170 A=    0.0000 R=    0.0000 C=    0.0000
 XYZ=    1.4806   -8.5069    2.5048 Q=   -0.8340 A=    0.0000 R=    0.0000 C=    0.0000
 XYZ=    2.4199   -8.3415    2.2912 Q=    0.4170 A=    0.0000 R=    0.0000 C=    0.0000
 XYZ=    1.2188   -7.6353    2.8660 Q=    0.4170 A=    0.0000 R=    0.0000 C=    0.0000
 XYZ=  -10.0675  -25.5279   -1.5032 Q=   -0.8340 A=    0.0000 R=    0.0000 C=    0.0000
 XYZ=   -9.7867  -24.7929   -2.0597 Q=    0.4170 A=    0.0000 R=    0.0000 C=    0.0000
 XYZ=   -9.5627  -25.3724   -0.6810 Q=    0.4170 A=    0.0000 R=    0.0000 C=    0.0000
 XYZ=  -16.6189  -17.9744  -14.3099 Q=   -0.8340 A=    0.0000 R=    0.0000 C=    0.0000
 XYZ=  -17.2557  -17.2337  -14.3608 Q=    0.4170 A=    0.0000 R=    0.0000 C=    0.0000
 XYZ=  -15.7909  -17.5082  -14.5606 Q=    0.4170 A=    0.0000 R=    0.0000 C=    0.0000
 XYZ=   -7.0216  -25.4212   -9.9080 Q=   -0.8340 A=    0.0000 R=    0.0000 C=    0.0000
 XYZ=   -7.0490  -26.3727  -10.0089 Q=    0.4170 A=    0.0000 R=    0.0000 C=    0.0000
 XYZ=   -6.9250  -25.2825   -8.9659 Q=    0.4170 A=    0.0000 R=    0.0000 C=    0.0000
 XYZ=   -9.6820  -14.0180  -25.3720 Q=   -0.8340 A=    0.0000 R=    0.0000 C=    0.0000
 XYZ=  -10.2470  -14.7900  -25.4150 Q=    0.4170 A=    0.0000 R=    0.0000 C=    0.0000
 XYZ=   -8.8010  -14.3720  -25.2510 Q=    0.4170 A=    0.0000 R=    0.0000 C=    0.0000
 XYZ=   -7.6120  -11.3210  -25.8530 Q=   -0.8340 A=    0.0000 R=    0.0000 C=    0.0000
 XYZ=   -8.4710  -11.7420  -25.9060 Q=    0.4170 A=    0.0000 R=    0.0000 C=    0.0000
 XYZ=   -7.0810  -11.9260  -25.3360 Q=    0.4170 A=    0.0000 R=    0.0000 C=    0.0000
 XYZ=   -4.6651    0.2434   -1.0965 Q=   -0.8340 A=    0.0000 R=    0.0000 C=    0.0000
 XYZ=   -3.7034    0.0398   -1.0999 Q=    0.4170 A=    0.0000 R=    0.0000 C=    0.0000
 XYZ=   -5.0242   -0.6561   -0.9285 Q=    0.4170 A=    0.0000 R=    0.0000 C=    0.0000
 XYZ=  -16.9180  -12.1650    8.7730 Q=   -0.8340 A=    0.0000 R=    0.0000 C=    0.0000
 XYZ=  -17.7100  -12.6850    8.6340 Q=    0.4170 A=    0.0000 R=    0.0000 C=    0.0000
 XYZ=  -17.1940  -11.4620    9.3610 Q=    0.4170 A=    0.0000 R=    0.0000 C=    0.0000
 XYZ=   -8.7512   -7.0676  -10.0688 Q=   -0.8340 A=    0.0000 R=    0.0000 C=    0.0000
 XYZ=   -8.8735   -7.1890   -9.1021 Q=    0.4170 A=    0.0000 R=    0.0000 C=    0.0000
 XYZ=   -9.2575   -6.2296  -10.1976 Q=    0.4170 A=    0.0000 R=    0.0000 C=    0.0000
 XYZ=   -6.0117  -13.5070    0.7025 Q=   -0.8340 A=    0.0000 R=    0.0000 C=    0.0000
 XYZ=   -6.0826  -12.5315    0.7634 Q=    0.4170 A=    0.0000 R=    0.0000 C=    0.0000
 XYZ=   -5.8685  -13.7400    1.6410 Q=    0.4170 A=    0.0000 R=    0.0000 C=    0.0000
 XYZ=    1.4160    7.8370   -6.9120 Q=   -0.8340 A=    0.0000 R=    0.0000 C=    0.0000
 XYZ=    0.6470    7.2940   -6.7360 Q=    0.4170 A=    0.0000 R=    0.0000 C=    0.0000
 XYZ=    1.3350    8.0750   -7.8360 Q=    0.4170 A=    0.0000 R=    0.0000 C=    0.0000
 XYZ=   -8.8010    3.0050   10.5290 Q=   -0.8340 A=    0.0000 R=    0.0000 C=    0.0000
 XYZ=   -9.1590    3.5780   11.2070 Q=    0.4170 A=    0.0000 R=    0.0000 C=    0.0000
 XYZ=   -8.9020    2.1220   10.8850 Q=    0.4170 A=    0.0000 R=    0.0000 C=    0.0000
 XYZ=  -13.1177  -10.4752   -7.9200 Q=   -0.8340 A=    0.0000 R=    0.0000 C=    0.0000
 XYZ=  -12.4002  -11.1389   -7.9364 Q=    0.4170 A=    0.0000 R=    0.0000 C=    0.0000
 XYZ=  -12.8777   -9.9905   -7.1032 Q=    0.4170 A=    0.0000 R=    0.0000 C=    0.0000
 XYZ=   -5.2960  -23.8142  -11.3089 Q=   -0.8340 A=    0.0000 R=    0.0000 C=    0.0000
 XYZ=   -4.6466  -23.6716  -10.6202 Q=    0.4170 A=    0.0000 R=    0.0000 C=    0.0000
 XYZ=   -5.9700  -24.3535  -10.8953 Q=    0.4170 A=    0.0000 R=    0.0000 C=    0.0000
 XYZ=  -16.4660    5.7270  -10.8430 Q=   -0.8340 A=    0.0000 R=    0.0000 C=    0.0000
 XYZ=  -15.7700    6.3740  -10.9640 Q=    0.4170 A=    0.0000 R=    0.0000 C=    0.0000
 XYZ=  -17.1790    6.2170  -10.4330 Q=    0.4170 A=    0.0000 R=    0.0000 C=    0.0000
 XYZ=   -9.8371   -9.8460    5.0029 Q=   -0.8340 A=    0.0000 R=    0.0000 C=    0.0000
 XYZ=   -9.1566   -9.8062    4.2863 Q=    0.4170 A=    0.0000 R=    0.0000 C=    0.0000
 XYZ=   -9.6836   -9.0101    5.4634 Q=    0.4170 A=    0.0000 R=    0.0000 C=    0.0000
 XYZ=  -16.3430    3.5560    4.4200 Q=   -0.8340 A=    0.0000 R=    0.0000 C=    0.0000
 XYZ=  -17.0370    2.9930    4.0760 Q=    0.4170 A=    0.0000 R=    0.0000 C=    0.0000
 XYZ=  -15.7430    2.9550    4.8600 Q=    0.4170 A=    0.0000 R=    0.0000 C=    0.0000
 XYZ=  -18.9721   -0.7831   -7.4754 Q=   -0.8340 A=    0.0000 R=    0.0000 C=    0.0000
 XYZ=  -19.0992   -1.0634   -8.4058 Q=    0.4170 A=    0.0000 R=    0.0000 C=    0.0000
 XYZ=  -19.8586   -0.4505   -7.2602 Q=    0.4170 A=    0.0000 R=    0.0000 C=    0.0000
 XYZ=   -9.2559    2.0788   -2.6687 Q=   -0.8340 A=    0.0000 R=    0.0000 C=    0.0000
 XYZ=   -9.5857    2.3275   -1.7794 Q=    0.4170 A=    0.0000 R=    0.0000 C=    0.0000
 XYZ=   -9.0276    1.1354   -2.5549 Q=    0.4170 A=    0.0000 R=    0.0000 C=    0.0000
 XYZ=   -3.9830   -0.9470    4.5491 Q=   -0.8340 A=    0.0000 R=    0.0000 C=    0.0000
 XYZ=   -4.4693   -0.8380    3.7001 Q=    0.4170 A=    0.0000 R=    0.0000 C=    0.0000
 XYZ=   -4.6571   -0.5939    5.1674 Q=    0.4170 A=    0.0000 R=    0.0000 C=    0.0000
 XYZ=    5.1398   -6.0029   -9.8904 Q=   -0.8340 A=    0.0000 R=    0.0000 C=    0.0000
 XYZ=    5.8326   -5.6750   -9.2781 Q=    0.4170 A=    0.0000 R=    0.0000 C=    0.0000
 XYZ=    5.6805   -6.2400  -10.6687 Q=    0.4170 A=    0.0000 R=    0.0000 C=    0.0000
 XYZ=  -15.9180    2.9440  -14.3890 Q=   -0.8340 A=    0.0000 R=    0.0000 C=    0.0000
 XYZ=  -15.9700    3.1670  -15.3190 Q=    0.4170 A=    0.0000 R=    0.0000 C=    0.0000
 XYZ=  -15.4660    3.6870  -13.9900 Q=    0.4170 A=    0.0000 R=    0.0000 C=    0.0000
 XYZ=   -0.4087   -7.6391   -7.4275 Q=   -0.8340 A=    0.0000 R=    0.0000 C=    0.0000
 XYZ=   -0.1287   -8.5595   -7.5857 Q=    0.4170 A=    0.0000 R=    0.0000 C=    0.0000
 XYZ=   -1.3464   -7.7675   -7.1572 Q=    0.4170 A=    0.0000 R=    0.0000 C=    0.0000
 XYZ=   -4.8578   -3.3069  -13.0690 Q=   -0.8340 A=    0.0000 R=    0.0000 C=    0.0000
 XYZ=   -5.0515   -2.9118  -12.2189 Q=    0.4170 A=    0.0000 R=    0.0000 C=    0.0000
 XYZ=   -4.0874   -3.8523  -12.9102 Q=    0.4170 A=    0.0000 R=    0.0000 C=    0.0000
 XYZ=   -4.8053  -10.8765    4.6637 Q=   -0.8340 A=    0.0000 R=    0.0000 C=    0.0000
 XYZ=   -5.4546  -11.5949    4.8364 Q=    0.4170 A=    0.0000 R=    0.0000 C=    0.0000
 XYZ=   -4.7448  -10.4800    5.5412 Q=    0.4170 A=    0.0000 R=    0.0000 C=    0.0000
 XYZ=  -14.3720    1.9050  -18.0580 Q=   -0.8340 A=    0.0000 R=    0.0000 C=    0.0000
 XYZ=  -14.7730    2.7650  -17.9340 Q=    0.4170 A=    0.0000 R=    0.0000 C=    0.0000
 XYZ=  -13.4300    2.0700  -18.0090 Q=    0.4170 A=    0.0000 R=    0.0000 C=    0.0000
 XYZ=   -2.9010    8.4070   -0.8900 Q=   -0.8340 A=    0.0000 R=    0.0000 C=    0.0000
 XYZ=   -3.8010    8.3390   -1.2080 Q=    0.4170 A=    0.0000 R=    0.0000 C=    0.0000
 XYZ=   -2.9610    8.9720   -0.1190 Q=    0.4170 A=    0.0000 R=    0.0000 C=    0.0000
 XYZ=  -11.4980  -13.1520   15.1600 Q=   -0.8340 A=    0.0000 R=    0.0000 C=    0.0000
 XYZ=  -12.3500  -12.8610   15.4850 Q=    0.4170 A=    0.0000 R=    0.0000 C=    0.0000
 XYZ=  -10.8680  -12.5680   15.5820 Q=    0.4170 A=    0.0000 R=    0.0000 C=    0.0000
 XYZ=  -17.0210   -4.2750  -22.5720 Q=   -0.8340 A=    0.0000 R=    0.0000 C=    0.0000
 XYZ=  -17.6560   -4.1250  -21.8720 Q=    0.4170 A=    0.0000 R=    0.0000 C=    0.0000
 XYZ=  -16.6110   -5.1110  -22.3490 Q=    0.4170 A=    0.0000 R=    0.0000 C=    0.0000
 XYZ=  -14.9178  -21.2432  -13.7742 Q=   -0.8340 A=    0.0000 R=    0.0000 C=    0.0000
 XYZ=  -15.7064  -20.7614  -14.0560 Q=    0.4170 A=    0.0000 R=    0.0000 C=    0.0000
 XYZ=  -14.4308  -20.5601  -13.2650 Q=    0.4170 A=    0.0000 R=    0.0000 C=    0.0000
 XYZ=  -14.3540    4.9510  -13.1070 Q=   -0.8340 A=    0.0000 R=    0.0000 C=    0.0000
 XYZ=  -13.8220    5.6990  -13.3800 Q=    0.4170 A=    0.0000 R=    0.0000 C=    0.0000
 XYZ=  -14.8190    5.2580  -12.3290 Q=    0.4170 A=    0.0000 R=    0.0000 C=    0.0000
 XYZ=   -9.2227   -8.7087  -16.3990 Q=   -0.8340 A=    0.0000 R=    0.0000 C=    0.0000
 XYZ=   -9.3868   -8.2154  -15.5726 Q=    0.4170 A=    0.0000 R=    0.0000 C=    0.0000
 XYZ=  -10.1236   -8.7049  -16.7799 Q=    0.4170 A=    0.0000 R=    0.0000 C=    0.0000
 XYZ=    2.6860  -29.2930    0.4910 Q=   -0.8340 A=    0.0000 R=    0.0000 C=    0.0000
 XYZ=    3.0290  -29.1660    1.3760 Q=    0.4170 A=    0.0000 R=    0.0000 C=    0.0000
 XYZ=    1.8170  -28.8920    0.5110 Q=    0.4170 A=    0.0000 R=    0.0000 C=    0.0000
 XYZ=    2.5350  -30.3740   -8.0190 Q=   -0.8340 A=    0.0000 R=    0.0000 C=    0.0000
 XYZ=    2.8950  -31.0310   -7.4230 Q=    0.4170 A=    0.0000 R=    0.0000 C=    0.0000
 XYZ=    3.1630  -29.6530   -7.9880 Q=    0.4170 A=    0.0000 R=    0.0000 C=    0.0000
 XYZ=  -18.7530    5.5100  -12.5600 Q=   -0.8340 A=    0.0000 R=    0.0000 C=    0.0000
 XYZ=  -18.4920    6.3110  -13.0140 Q=    0.4170 A=    0.0000 R=    0.0000 C=    0.0000
 XYZ=  -17.9290    5.1180  -12.2710 Q=    0.4170 A=    0.0000 R=    0.0000 C=    0.0000
 XYZ=    1.6989  -23.5896    2.1011 Q=   -0.8340 A=    0.0000 R=    0.0000 C=    0.0000
 XYZ=    2.1594  -22.7537    2.0272 Q=    0.4170 A=    0.0000 R=    0.0000 C=    0.0000
 XYZ=    1.2541  -23.6938    1.2599 Q=    0.4170 A=    0.0000 R=    0.0000 C=    0.0000
 XYZ=    5.4134  -14.3058    5.0627 Q=   -0.8340 A=    0.0000 R=    0.0000 C=    0.0000
 XYZ=    4.6625  -14.8560    5.3769 Q=    0.4170 A=    0.0000 R=    0.0000 C=    0.0000
 XYZ=    6.1410  -14.9630    5.0792 Q=    0.4170 A=    0.0000 R=    0.0000 C=    0.0000
 XYZ=   -5.7466   -7.5978   -3.0155 Q=   -0.8340 A=    0.0000 R=    0.0000 C=    0.0000
 XYZ=   -4.9190   -8.0659   -2.7455 Q=    0.4170 A=    0.0000 R=    0.0000 C=    0.0000
 XYZ=   -5.4546   -7.2860   -3.8975 Q=    0.4170 A=    0.0000 R=    0.0000 C=    0.0000
 XYZ=  -23.3470   -9.7980   -8.2020 Q=   -0.8340 A=    0.0000 R=    0.0000 C=    0.0000
 XYZ=  -23.9500   -9.5670   -8.9090 Q=    0.4170 A=    0.0000 R=    0.0000 C=    0.0000
 XYZ=  -23.8350   -9.6090   -7.4010 Q=    0.4170 A=    0.0000 R=    0.0000 C=    0.0000
 XYZ=   12.6710  -12.4630  -10.2800 Q=   -0.8340 A=    0.0000 R=    0.0000 C=    0.0000
 XYZ=   13.0410  -11.6900   -9.8550 Q=    0.4170 A=    0.0000 R=    0.0000 C=    0.0000
 XYZ=   13.1170  -12.5090  -11.1260 Q=    0.4170 A=    0.0000 R=    0.0000 C=    0.0000
 XYZ=    9.4900    0.5840   -8.0140 Q=   -0.8340 A=    0.0000 R=    0.0000 C=    0.0000
 XYZ=    8.7730    0.5880   -7.3790 Q=    0.4170 A=    0.0000 R=    0.0000 C=    0.0000
 XYZ=    9.5140    1.4790   -8.3540 Q=    0.4170 A=    0.0000 R=    0.0000 C=    0.0000
 XYZ=  -15.2990  -26.6870  -10.8540 Q=   -0.8340 A=    0.0000 R=    0.0000 C=    0.0000
 XYZ=  -14.6010  -26.4460  -11.4650 Q=    0.4170 A=    0.0000 R=    0.0000 C=    0.0000
 XYZ=  -15.6240  -27.5260  -11.1800 Q=    0.4170 A=    0.0000 R=    0.0000 C=    0.0000
 XYZ=   -2.5449    2.8464    0.5233 Q=   -0.8340 A=    0.0000 R=    0.0000 C=    0.0000
 XYZ=   -2.4030    3.7865    0.6343 Q=    0.4170 A=    0.0000 R=    0.0000 C=    0.0000
 XYZ=   -3.4951    2.7400    0.5691 Q=    0.4170 A=    0.0000 R=    0.0000 C=    0.0000
 XYZ=    3.4950   -9.5040  -20.3580 Q=   -0.8340 A=    0.0000 R=    0.0000 C=    0.0000
 XYZ=    3.9270  -10.1820  -19.8390 Q=    0.4170 A=    0.0000 R=    0.0000 C=    0.0000
 XYZ=    4.1470   -8.8070  -20.4320 Q=    0.4170 A=    0.0000 R=    0.0000 C=    0.0000
 XYZ=  -22.3440  -21.4660   -6.9010 Q=   -0.8340 A=    0.0000 R=    0.0000 C=    0.0000
 XYZ=  -23.1330  -20.9290   -6.8240 Q=    0.4170 A=    0.0000 R=    0.0000 C=    0.0000
 XYZ=  -22.2560  -21.6300   -7.8400 Q=    0.4170 A=    0.0000 R=    0.0000 C=    0.0000
 XYZ=  -12.6280  -15.5480   14.6410 Q=   -0.8340 A=    0.0000 R=    0.0000 C=    0.0000
 XYZ=  -12.0590  -14.8260   14.9090 Q=    0.4170 A=    0.0000 R=    0.0000 C=    0.0000
 XYZ=  -12.6440  -15.4980   13.6860 Q=    0.4170 A=    0.0000 R=    0.0000 C=    0.0000
 XYZ=    5.9686    0.2505   -9.3960 Q=   -0.8340 A=    0.0000 R=    0.0000 C=    0.0000
 XYZ=    5.8946    1.1818   -9.1177 Q=    0.4170 A=    0.0000 R=    0.0000 C=    0.0000
 XYZ=    5.0530   -0.0555   -9.1903 Q=    0.4170 A=    0.0000 R=    0.0000 C=    0.0000
 XYZ=   -9.4718   -0.8523  -14.5864 Q=   -0.8340 A=    0.0000 R=    0.0000 C=    0.0000
 XYZ=   -9.0276   -1.5016  -15.1726 Q=    0.4170 A=    0.0000 R=    0.0000 C=    0.0000
 XYZ=  -10.2453   -1.3865  -14.2871 Q=    0.4170 A=    0.0000 R=    0.0000 C=    0.0000
 XYZ=    7.8410  -16.9350    7.6070 Q=   -0.8340 A=    0.0000 R=    0.0000 C=    0.0000
 XYZ=    6.9910  -17.0640    8.0260 Q=    0.4170 A=    0.0000 R=    0.0000 C=    0.0000
 XYZ=    7.6890  -17.1450    6.6850 Q=    0.4170 A=    0.0000 R=    0.0000 C=    0.0000
 XYZ=  -14.9025   -2.3694   -2.2036 Q=   -0.8340 A=    0.0000 R=    0.0000 C=    0.0000
 XYZ=  -15.0645   -1.4669   -2.5340 Q=    0.4170 A=    0.0000 R=    0.0000 C=    0.0000
 XYZ=  -15.6172   -2.4222   -1.5236 Q=    0.4170 A=    0.0000 R=    0.0000 C=    0.0000
 XYZ=    4.6537   -7.8087   -1.0066 Q=   -0.8340 A=    0.0000 R=    0.0000 C=    0.0000
 XYZ=    4.7649   -8.7437   -1.2734 Q=    0.4170 A=    0.0000 R=    0.0000 C=    0.0000
 XYZ=    4.3603   -7.9201   -0.0781 Q=    0.4170 A=    0.0000 R=    0.0000 C=    0.0000
 XYZ=  -16.2070  -18.5520    7.1130 Q=   -0.8340 A=    0.0000 R=    0.0000 C=    0.0000
 XYZ=  -16.2330  -17.6650    7.4710 Q=    0.4170 A=    0.0000 R=    0.0000 C=    0.0000
 XYZ=  -16.1270  -19.1180    7.8810 Q=    0.4170 A=    0.0000 R=    0.0000 C=    0.0000
 XYZ=    0.5689   -5.9377    3.0825 Q=   -0.8340 A=    0.0000 R=    0.0000 C=    0.0000
 XYZ=    0.5449   -5.0569    3.5053 Q=    0.4170 A=    0.0000 R=    0.0000 C=    0.0000
 XYZ=    0.8852   -5.7277    2.1795 Q=    0.4170 A=    0.0000 R=    0.0000 C=    0.0000
 XYZ=   -1.7860    5.0830    6.9690 Q=   -0.8340 A=    0.0000 R=    0.0000 C=    0.0000
 XYZ=   -1.7650    4.1740    6.6710 Q=    0.4170 A=    0.0000 R=    0.0000 C=    0.0000
 XYZ=   -0.9250    5.2270    7.3610 Q=    0.4170 A=    0.0000 R=    0.0000 C=    0.0000
 XYZ=   -6.4385  -10.4930   -8.5469 Q=   -0.8340 A=    0.0000 R=    0.0000 C=    0.0000
 XYZ=   -6.2999  -10.9727   -7.7045 Q=    0.4170 A=    0.0000 R=    0.0000 C=    0.0000
 XYZ=   -5.4942  -10.4108   -8.8075 Q=    0.4170 A=    0.0000 R=    0.0000 C=    0.0000
 XYZ=  -23.1330  -11.8930  -15.0410 Q=   -0.8340 A=    0.0000 R=    0.0000 C=    0.0000
 XYZ=  -22.5620  -12.6400  -15.2200 Q=    0.4170 A=    0.0000 R=    0.0000 C=    0.0000
 XYZ=  -23.7570  -12.2180  -14.3910 Q=    0.4170 A=    0.0000 R=    0.0000 C=    0.0000
 XYZ=  -18.6770  -10.7470  -18.5420 Q=   -0.8340 A=    0.0000 R=    0.0000 C=    0.0000
 XYZ=  -17.8870  -10.6410  -18.0110 Q=    0.4170 A=    0.0000 R=    0.0000 C=    0.0000
 XYZ=  -18.3770  -11.1950  -19.3320 Q=    0.4170 A=    0.0000 R=    0.0000 C=    0.0000
 XYZ=  -16.2670  -25.2050    6.8830 Q=   -0.8340 A=    0.0000 R=    0.0000 C=    0.0000
 XYZ=  -16.7890  -25.7850    6.3290 Q=    0.4170 A=    0.0000 R=    0.0000 C=    0.0000
 XYZ=  -15.5200  -25.7400    7.1540 Q=    0.4170 A=    0.0000 R=    0.0000 C=    0.0000
 XYZ=   -0.9430  -13.4217    6.7460 Q=   -0.8340 A=    0.0000 R=    0.0000 C=    0.0000
 XYZ=    0.0033  -13.5914    6.8362 Q=    0.4170 A=    0.0000 R=    0.0000 C=    0.0000
 XYZ=   -1.3052  -14.0168    7.4385 Q=    0.4170 A=    0.0000 R=    0.0000 C=    0.0000
 XYZ=  -11.5030  -29.2470  -12.9310 Q=   -0.8340 A=    0.0000 R=    0.0000 C=    0.0000
 XYZ=  -11.7640  -29.5170  -12.0510 Q=    0.4170 A=    0.0000 R=    0.0000 C=    0.0000
 XYZ=  -10.6390  -29.6400  -13.0570 Q=    0.4170 A=    0.0000 R=    0.0000 C=    0.0000
 XYZ=  -14.5137  -16.5969  -15.2885 Q=   -0.8340 A=    0.0000 R=    0.0000 C=    0.0000
 XYZ=  -13.7091  -17.1454  -15.2105 Q=    0.4170 A=    0.0000 R=    0.0000 C=    0.0000
 XYZ=  -14.1624  -15.6814  -15.2343 Q=    0.4170 A=    0.0000 R=    0.0000 C=    0.0000
 XYZ=   -4.6306  -23.8067  -16.7814 Q=   -0.8340 A=    0.0000 R=    0.0000 C=    0.0000
 XYZ=   -5.1583  -24.0778  -17.5325 Q=    0.4170 A=    0.0000 R=    0.0000 C=    0.0000
 XYZ=   -5.2593  -23.7210  -16.0647 Q=    0.4170 A=    0.0000 R=    0.0000 C=    0.0000
 XYZ=  -11.5270  -28.6850   -5.2900 Q=   -0.8340 A=    0.0000 R=    0.0000 C=    0.0000
 XYZ=  -11.6310  -28.3420   -6.1770 Q=    0.4170 A=    0.0000 R=    0.0000 C=    0.0000
 XYZ=  -12.4200  -28.8700   -4.9980 Q=    0.4170 A=    0.0000 R=    0.0000 C=    0.0000
 XYZ=  -23.4200  -10.9200    1.2950 Q=   -0.8340 A=    0.0000 R=    0.0000 C=    0.0000
 XYZ=  -24.2000  -11.3000    0.8900 Q=    0.4170 A=    0.0000 R=    0.0000 C=    0.0000
 XYZ=  -23.7130  -10.6390    2.1620 Q=    0.4170 A=    0.0000 R=    0.0000 C=    0.0000
 XYZ=  -17.1386  -12.7858    5.4989 Q=   -0.8340 A=    0.0000 R=    0.0000 C=    0.0000
 XYZ=  -17.4704  -13.0072    4.6048 Q=    0.4170 A=    0.0000 R=    0.0000 C=    0.0000
 XYZ=  -17.8195  -13.1657    6.0880 Q=    0.4170 A=    0.0000 R=    0.0000 C=    0.0000
 XYZ=   -4.8759  -15.8543  -16.6358 Q=   -0.8340 A=    0.0000 R=    0.0000 C=    0.0000
 XYZ=   -4.7651  -16.7239  -16.2039 Q=    0.4170 A=    0.0000 R=    0.0000 C=    0.0000
 XYZ=   -5.4465  -15.3913  -15.9913 Q=    0.4170 A=    0.0000 R=    0.0000 C=    0.0000
 XYZ=   -8.3335  -21.9973   -9.7016 Q=   -0.8340 A=    0.0000 R=    0.0000 C=    0.0000
 XYZ=   -9.1063  -21.9789   -9.0912 Q=    0.4170 A=    0.0000 R=    0.0000 C=    0.0000
 XYZ=   -7.6190  -22.0427   -9.0360 Q=    0.4170 A=    0.0000 R=    0.0000 C=    0.0000
 XYZ=  -10.2558   -4.8201  -10.1816 Q=   -0.8340 A=    0.0000 R=    0.0000 C=    0.0000
 XYZ=  -10.2668   -4.1673   -9.4530 Q=    0.4170 A=    0.0000 R=    0.0000 C=    0.0000
 XYZ=  -11.2107   -4.8154  -10.4174 Q=    0.4170 A=    0.0000 R=    0.0000 C=    0.0000
 XYZ=    4.2773    0.7979  -14.2428 Q=   -0.8340 A=    0.0000 R=    0.0000 C=    0.0000
 XYZ=    4.4608   -0.0585  -13.8247 Q=    0.4170 A=    0.0000 R=    0.0000 C=    0.0000
 XYZ=    3.3257    0.7614  -14.4071 Q=    0.4170 A=    0.0000 R=    0.0000 C=    0.0000
 XYZ=   -0.0420    6.0560    2.3520 Q=   -0.8340 A=    0.0000 R=    0.0000 C=    0.0000
 XYZ=   -0.2690    6.9860    2.3500 Q=    0.4170 A=    0.0000 R=    0.0000 C=    0.0000
 XYZ=   -0.5130    5.6920    1.6020 Q=    0.4170 A=    0.0000 R=    0.0000 C=    0.0000
 XYZ=   -9.7840   -3.0600   10.6770 Q=   -0.8340 A=    0.0000 R=    0.0000 C=    0.0000
 XYZ=  -10.2830   -2.6020   10.0010 Q=    0.4170 A=    0.0000 R=    0.0000 C=    0.0000
 XYZ=  -10.1420   -2.7330   11.5020 Q=    0.4170 A=    0.0000 R=    0.0000 C=    0.0000
 XYZ=   -2.5607   -1.1379  -13.2872 Q=   -0.8340 A=    0.0000 R=    0.0000 C=    0.0000
[...]
 4773          -0.028484     -0.000030      0.000783     -0.000206
 4774          -0.027849      0.000027      0.000743     -0.000219
 4775          -0.026443      0.000556      0.000148     -0.000395
 4776          -0.026696      0.000580      0.000121     -0.000393
 4777          -0.025241      0.000507      0.000136     -0.000359
 4778          -0.024573      0.000388      0.000413     -0.000212
 4779          -0.025436      0.000427      0.000440     -0.000212
 4780          -0.024139      0.000363      0.000416     -0.000192
 4781          -0.028080      0.000432      0.000113     -0.000645
 4782          -0.029218      0.000474      0.000147     -0.000688
 4783          -0.027690      0.000448      0.000090     -0.000612
 4784          -0.066855      0.003142     -0.001671     -0.000402
 4785          -0.067804      0.003636     -0.001668     -0.000856
 4786          -0.065337      0.003183     -0.001728     -0.000606
 4787          -0.049663      0.000315      0.000135      0.002436
 4788          -0.047669      0.000412     -0.000009      0.002230
 4789          -0.046562      0.000243      0.000243      0.002137
 4790          -0.030300      0.000485     -0.000760      0.000139
 4791          -0.031172      0.000492     -0.000824      0.000112
 4792          -0.029259      0.000472     -0.000700      0.000101
 4793          -0.025483      0.000475     -0.000024     -0.000439
 4794          -0.026696      0.000520     -0.000022     -0.000483
 4795          -0.025230      0.000484     -0.000022     -0.000409
 4796          -0.025453      0.000209     -0.000602      0.000112
 4797          -0.026114      0.000236     -0.000623      0.000136
 4798          -0.026220      0.000210     -0.000646      0.000099
 4799          -0.022748      0.000462      0.000195      0.000140
 4800          -0.022149      0.000433      0.000199      0.000129
 4801          -0.023421      0.000493      0.000210      0.000132
 4802          -0.025304      0.000545     -0.000247      0.000219
 4803          -0.024358      0.000512     -0.000218      0.000198
 4804          -0.026143      0.000593     -0.000250      0.000220
 4805          -0.030429      0.000457     -0.000516     -0.000620
 4806          -0.031601      0.000519     -0.000524     -0.000675
 4807          -0.029393      0.000454     -0.000482     -0.000555
 4808          -0.077689     -0.002496     -0.004430      0.003181
 4809          -0.085279     -0.003723     -0.005136      0.003476
 4810          -0.076645     -0.002430     -0.003769      0.003673
 4811          -0.024042      0.000158     -0.000039     -0.000554
 4812          -0.023562      0.000137     -0.000023     -0.000537
 4813          -0.023338      0.000165     -0.000041     -0.000517
 4814          -0.027891      0.000230      0.000667      0.000343
 4815          -0.028223      0.000262      0.000662      0.000374
 4816          -0.026559      0.000205      0.000603      0.000315
 4817          -0.028560     -0.000810      0.000073     -0.000057
 4818          -0.028377     -0.000803      0.000032     -0.000050
 4819          -0.028620     -0.000814      0.000090     -0.000018
 4820          -0.036351      0.000684      0.001046     -0.000453
 4821          -0.036338      0.000668      0.001089     -0.000374
 4822          -0.036000      0.000746      0.000984     -0.000425
 4823          -0.030204     -0.000777      0.000080      0.000464
 4824          -0.031248     -0.000845      0.000113      0.000467
 4825          -0.030785     -0.000809      0.000035      0.000485
 4826          -0.038792      0.000275      0.000583      0.001368
 4827          -0.037188      0.000205      0.000596      0.001238
 4828          -0.041002      0.000224      0.000645      0.001544
 4829          -0.023745      0.000343      0.000361     -0.000265
 4830          -0.023936      0.000352      0.000378     -0.000248
 4831          -0.024675      0.000364      0.000387     -0.000297
 4832          -0.061371      0.001157      0.003502      0.001281
 4833          -0.062173      0.001527      0.003608      0.000958
 4834          -0.059964      0.000785      0.003483      0.000988
 4835          -0.024010      0.000312     -0.000394      0.000277
 4836          -0.023230      0.000295     -0.000359      0.000270
 4837          -0.023637      0.000290     -0.000397      0.000261
 4838          -0.027593     -0.000130     -0.000023     -0.000750
 4839          -0.027920     -0.000165     -0.000042     -0.000762
 4840          -0.027741     -0.000103     -0.000050     -0.000762
 4841          -0.034608     -0.000415     -0.000815      0.000768
 4842          -0.036798     -0.000470     -0.000943      0.000845
 4843          -0.034264     -0.000337     -0.000811      0.000773
 4844          -0.035978      0.000547     -0.000656     -0.000983
 4845          -0.033821      0.000467     -0.000570     -0.000882
 4846          -0.036658      0.000493     -0.000723     -0.001033
 4847          -0.038578     -0.000053     -0.000815      0.001234
 4848          -0.041173     -0.000114     -0.000909      0.001412
 4849          -0.038387     -0.000057     -0.000890      0.001163
 4850          -0.027404      0.000517     -0.000245      0.000483
 4851          -0.026704      0.000485     -0.000260      0.000450
 4852          -0.028209      0.000524     -0.000264      0.000534
 4853          -0.025198      0.000325     -0.000292      0.000458
 4854          -0.024479      0.000318     -0.000286      0.000417
 4855          -0.025555      0.000315     -0.000320      0.000471
 4856          -0.031982      0.000764     -0.000092      0.000677
 4857          -0.031916      0.000753     -0.000150      0.000671
 4858          -0.033268      0.000794     -0.000086      0.000771
 4859          -0.024347      0.000401     -0.000304     -0.000309
 4860          -0.023801      0.000368     -0.000301     -0.000305
 4861          -0.024809      0.000418     -0.000332     -0.000302
 4862          -0.097839      0.009550     -0.000536     -0.004566
 4863          -0.084968      0.007221     -0.000028     -0.002846
 4864          -0.116138      0.014694      0.000691     -0.007017
 4865          -0.037444      0.001151     -0.000459     -0.000616
 4866          -0.037963      0.001198     -0.000521     -0.000549
 4867          -0.036669      0.001061     -0.000496     -0.000629
 4868          -0.030266      0.000034     -0.000874      0.000273
 4869          -0.029923      0.000043     -0.000867      0.000222
 4870          -0.028855      0.000035     -0.000788      0.000266
 4871          -0.028837      0.000680     -0.000451     -0.000103
 4872          -0.030200      0.000745     -0.000498     -0.000090
 4873          -0.028401      0.000638     -0.000468     -0.000105
 4874          -0.034156      0.000542     -0.000923      0.000444
 4875          -0.035567      0.000615     -0.001009      0.000425
 4876          -0.035184      0.000516     -0.000995      0.000507
 4877          -0.031211      0.000305     -0.000534     -0.000762
 4878          -0.030345      0.000291     -0.000541     -0.000692
 4879          -0.032924      0.000322     -0.000611     -0.000845
 4880          -0.033029     -0.000069     -0.000290     -0.001056
 4881          -0.032787     -0.000132     -0.000299     -0.001032
 4882          -0.032074     -0.000038     -0.000321     -0.000984
 4883          -0.026589      0.000303     -0.000185      0.000610
 4884          -0.026632      0.000312     -0.000216      0.000598
 4885          -0.027748      0.000339     -0.000186      0.000665
 4886          -0.032235      0.000442      0.000808     -0.000479
 4887          -0.032813      0.000504      0.000835     -0.000458
 4888          -0.030483      0.000403      0.000718     -0.000429
 4889          -0.027130      0.000228     -0.000700     -0.000004
 4890          -0.027610      0.000229     -0.000726      0.000030
 4891          -0.025905      0.000199     -0.000640     -0.000002
 4892          -0.030121     -0.000809      0.000292      0.000278
 4893          -0.031195     -0.000880      0.000312      0.000260
 4894          -0.028823     -0.000751      0.000250      0.000243
 4895          -0.030532     -0.000919     -0.000161      0.000022
 4896          -0.030161     -0.000899     -0.000147     -0.000027
 4897          -0.030608     -0.000914     -0.000212      0.000025
 4898          -0.025529      0.000478     -0.000391     -0.000196
 4899          -0.025513      0.000483     -0.000372     -0.000218
 4900          -0.024570      0.000449     -0.000361     -0.000169
 4901          -0.027185     -0.000506     -0.000385      0.000375
 4902          -0.027149     -0.000480     -0.000411      0.000377
 4903          -0.028539     -0.000565     -0.000417      0.000411
 4904          -0.031995     -0.000195      0.000636     -0.000764
 4905          -0.031973     -0.000224      0.000670     -0.000725
 4906          -0.031689     -0.000140      0.000642     -0.000745
 4907          -0.023118      0.000463     -0.000111      0.000242
 4908          -0.023778      0.000498     -0.000105      0.000246
 4909          -0.022561      0.000439     -0.000092      0.000240
 -----------------------------------------------------------------
 Leave Link  602 at Sat Jun 19 00:39:02 2021, MaxMem=   134217728 cpu:               8.3 elap:               1.1
 (Enter /APL/ISV/x86_64/gaussian/16/C.01/g16/l701.exe)
 ... and contract with generalized density number  0.
 Compute integral first derivatives.
 R6Disp: Adding Grimme-D3 dispersion energy 1st derivatives to the gradient.
 Leave Link  701 at Sat Jun 19 00:39:02 2021, MaxMem=   134217728 cpu:               1.6 elap:               0.2
 (Enter /APL/ISV/x86_64/gaussian/16/C.01/g16/l702.exe)
 L702 exits ... SP integral derivatives will be done elsewhere.
 Leave Link  702 at Sat Jun 19 00:39:02 2021, MaxMem=   134217728 cpu:               0.2 elap:               0.0
 (Enter /APL/ISV/x86_64/gaussian/16/C.01/g16/l703.exe)
 Integral derivatives from FoFJK, PRISM(SPDF).
 Compute integral first derivatives, UseDBF=F ICtDFT=           0.
 Calling FoFJK, ICntrl=      2127 FMM=F ISym2X=0 I1Cent= 0 IOpClX= 0 NMat=1 NMatS=1 NMatT=0.
 FoFJK:  IHMeth= 1 ICntrl=    2127 DoSepK=F KAlg= 0 I1Cent=           0 FoldK=F
 IRaf=         0 NMat=       1 IRICut=       1 DoRegI=T DoRafI=F ISym2E= 0 IDoP0=0 IntGTp=1.
 FoFCou: FMM=F IPFlag=           0 FMFlag=      100000 FMFlg1=         800
         NFxFlg=           0 DoJE=F BraDBF=F KetDBF=F FulRan=T
         wScrn=  0.000000 ICntrl=      2127 IOpCl=  0 I1Cent=           0 NGrid=           0
         NMat0=    1 NMatS0=      1 NMatT0=    0 NMatD0=    1 NMtDS0=    0 NMtDT0=    0
 Symmetry not used in FoFCou.
 Leave Link  703 at Sat Jun 19 00:39:03 2021, MaxMem=   134217728 cpu:               3.9 elap:               0.5
 (Enter /APL/ISV/x86_64/gaussian/16/C.01/g16/l716.exe)
 Dipole        = 7.62476672D+00 2.07684195D+01 1.16466895D+01
 -------------------------------------------------------------------
 Center     Atomic                   Forces (Hartrees/Bohr)
 Number     Number              X              Y              Z
 -------------------------------------------------------------------
      1       15          -0.000331495    0.000297579   -0.003040481
      2        8          -0.000176738   -0.006682745    0.004529298
      3        1           0.000210679   -0.000535336    0.000358582
      4        8          -0.007746012   -0.000042273    0.000048048
      5        1          -0.003192119   -0.000285803    0.000638875
      6        8           0.019404812    0.004716326   -0.003404246
      7        8          -0.005658638   -0.017354273   -0.006416086
 -------------------------------------------------------------------
 Cartesian Forces:  Max     0.019404812 RMS     0.006656640
 Force constants in Cartesian coordinates: 
                1             2             3             4             5 
      1  0.109707D+01
      2  0.117038D+00  0.940717D+00
      3  0.211863D-01  0.140577D+00  0.811323D+00
      4 -0.707901D-01 -0.122687D-01  0.102643D+00  0.246972D+00
      5 -0.165076D-01 -0.249295D-01  0.239674D-01 -0.427261D-01  0.585555D+00
      6  0.119064D+00  0.689947D-02 -0.327283D+00 -0.972760D-01 -0.158515D+00
      7  0.507595D-01 -0.104001D-01 -0.104057D-01  0.604370D-01  0.995120D-01
      8 -0.227923D-02  0.616905D-01 -0.233545D-02  0.822616D-01 -0.391457D+00
      9 -0.651794D-02  0.252077D-01  0.500347D-01  0.581783D-02  0.141769D+00
     10 -0.943368D-01  0.140641D+00 -0.433076D-01  0.350450D-01 -0.289167D-01
     11  0.119253D+00 -0.319525D+00  0.856719D-01 -0.718004D-02  0.439044D-01
     12 -0.375500D-01  0.787308D-01 -0.312823D-01 -0.947405D-02  0.146851D-01
     13  0.496143D-01 -0.516822D-02  0.190824D-02  0.357550D-01 -0.175546D-01
     14  0.183544D-01  0.549841D-01 -0.731837D-02 -0.182636D-02  0.337513D-01
     15 -0.185980D-01 -0.994773D-02  0.477435D-01  0.328545D-01 -0.158022D-03
     16 -0.592800D+00 -0.960274D-01  0.167137D-01  0.413890D-01 -0.503649D-02
     17 -0.937615D-01 -0.225249D-01 -0.932030D-03 -0.684041D-02  0.696183D-01
     18  0.293613D-01 -0.381921D-04  0.657085D-02 -0.472096D-01 -0.173551D-01
     19 -0.751479D-01 -0.133814D+00 -0.887384D-01  0.155646D-01  0.112295D-01
     20 -0.142097D+00 -0.326039D+00 -0.239630D+00 -0.114200D-01  0.479306D-01
     21 -0.106945D+00 -0.241429D+00 -0.192734D+00  0.126438D-01 -0.439360D-02
                6             7             8             9            10 
      6  0.531447D+00
      7 -0.263432D-02  0.175956D+00
      8  0.159341D+00 -0.250273D-01  0.523210D+00
      9 -0.450068D-01  0.472586D-01 -0.136732D+00  0.167518D+00
     10 -0.732146D-02  0.951132D-02 -0.277338D-01 -0.217050D-01  0.724313D+00
     11 -0.321544D-02 -0.186944D-01  0.377795D-01 -0.109321D-01 -0.767019D-01
     12  0.495711D-01 -0.147505D-01 -0.134908D-01  0.418045D-01  0.182025D-01
     13 -0.630602D-02  0.102502D-01 -0.268455D-01 -0.215287D-01 -0.404751D+00
     14 -0.410007D-02 -0.331919D-01  0.226074D-01 -0.229046D-01 -0.474079D-02
     15  0.570998D-01  0.257245D-01 -0.160197D-02  0.523498D-01  0.592134D-01
     16 -0.283714D-02  0.384363D-01 -0.579664D-02 -0.478916D-02  0.550825D-01
     17  0.292653D-02  0.148294D-01  0.762706D-01  0.174326D-01 -0.197808D-01
     18  0.452905D-01 -0.814399D-01 -0.242532D-01  0.301240D-01  0.140248D-01
     19 -0.268864D-02  0.190221D-01  0.542094D-02  0.146443D-02  0.395089D-01
     20 -0.333648D-02 -0.270278D-01  0.342724D-01 -0.138409D-01  0.172330D-01
     21  0.532546D-01  0.362474D-01  0.190724D-01  0.675485D-01 -0.191065D-01
               11            12            13            14            15 
     11  0.486517D+00
     12 -0.852427D-01  0.179518D+00
     13 -0.558856D-02  0.604696D-01  0.586310D+00
     14  0.220414D-01  0.397061D-01  0.724560D-01  0.162260D+00
     15  0.197882D-01  0.255338D-01 -0.276756D-01  0.283104D-01  0.135491D+00
     16  0.111993D-02  0.272480D-02  0.584143D-01  0.419266D-02 -0.588713D-02
     17  0.358452D-01 -0.346033D-01 -0.424021D-01 -0.137176D-01 -0.447588D-01
     18 -0.755144D-03  0.436811D-01  0.172084D-01 -0.836493D-02 -0.499485D-02
     19 -0.122081D-01 -0.196223D-01  0.287797D-01 -0.552440D-01 -0.656317D-01
     20  0.578104D-01  0.214801D-03  0.251030D-01  0.824466D-01  0.836795D-02
     21 -0.531475D-02  0.555472D-01 -0.240759D-01 -0.253285D-01  0.511497D-01
               16            17            18            19            20 
     16  0.701719D+00
     17  0.976528D-01  0.190272D+00
     18  0.121116D-02  0.337786D-01  0.213880D+00
     19  0.621320D-01  0.503026D-01  0.668438D-01  0.274513D+00
     20  0.389510D-02  0.286090D-01  0.169880D-01  0.134313D+00  0.439343D+00
     21 -0.713623D-02  0.261564D-01  0.298209D-01  0.108373D+00  0.231237D+00
               21 
     21  0.299786D+00
 Leave Link  716 at Sat Jun 19 00:39:03 2021, MaxMem=   134217728 cpu:               0.3 elap:               0.1
 (Enter /APL/ISV/x86_64/gaussian/16/C.01/g16/l103.exe)

 GradGradGradGradGradGradGradGradGradGradGradGradGradGradGradGradGradGrad
 Berny optimization.
 Search for a local minimum.
 Step number   1 out of a maximum of    2
 All quantities printed in internal units (Hartrees-Bohrs-Radians)
 Second derivative matrix not updated -- first step.
 ITU=  0
     Eigenvalues ---    0.03423   0.05299   0.07683   0.08356   0.10704
     Eigenvalues ---    0.12724   0.14807   0.16126   0.18482   0.52960
     Eigenvalues ---    0.86892   0.95699   1.18938   1.40485   1.68998
 Angle between quadratic step and forces=  47.57 degrees.
 Linear search not attempted -- first point.
 Variable       Old X    -DE/DX   Delta X   Delta X   Delta X     New X
                                 (Linear)    (Quad)   (Total)
    X1       -9.47953  -0.00033   0.00000   0.01803   0.01803  -9.46150
    Y1      -20.23339   0.00030   0.00000   0.00354   0.00354 -20.22985
    Z1      -10.19200  -0.00304   0.00000  -0.01711  -0.01711 -10.20911
    X2      -10.56127  -0.00018   0.00000  -0.01542  -0.01542 -10.57669
    Y2      -20.54504  -0.00668   0.00000  -0.00436  -0.00436 -20.54940
    Z2       -7.27858   0.00453   0.00000  -0.01316  -0.01316  -7.29174
    X3      -10.31489   0.00021   0.00000  -0.02446  -0.02446 -10.33935
    Y3      -22.26039  -0.00054   0.00000   0.00032   0.00032 -22.26007
    Z3       -6.63405   0.00036   0.00000  -0.00067  -0.00067  -6.63472
    X4      -10.84350  -0.00775   0.00000  -0.01778  -0.01778 -10.86128
    Y4      -17.56672  -0.00004   0.00000   0.01343   0.01343 -17.55328
    Z4      -10.93398   0.00005   0.00000   0.01439   0.01439 -10.91958
    X5      -12.69569  -0.00319   0.00000  -0.02087  -0.02087 -12.71656
    Y5      -17.68144  -0.00029   0.00000   0.02302   0.02302 -17.65843
    Z5      -10.77282   0.00064   0.00000   0.01441   0.01441 -10.75841
    X6       -6.62027   0.01940   0.00000   0.04730   0.04730  -6.57297
    Y6      -19.75829   0.00472   0.00000   0.01194   0.01194 -19.74636
    Z6      -10.25348  -0.00340   0.00000   0.00403   0.00403 -10.24946
    X7      -10.48514  -0.00566   0.00000  -0.02277  -0.02277 -10.50791
    Y7      -22.42971  -0.01735   0.00000  -0.03411  -0.03411 -22.46381
    Z7      -11.84555  -0.00642   0.00000   0.01331   0.01331 -11.83224
         Item               Value     Threshold  Converged?
 Maximum Force            0.019405     0.000450     NO 
 RMS     Force            0.006657     0.000300     NO 
 Maximum Displacement     0.047298     0.001800     NO 
 RMS     Displacement     0.019261     0.001200     NO 
 Predicted change in Energy=-9.083623D-04
 GradGradGradGradGradGradGradGradGradGradGradGradGradGradGradGradGradGrad

 Leave Link  103 at Sat Jun 19 00:39:03 2021, MaxMem=   134217728 cpu:               0.1 elap:               0.0
 (Enter /APL/ISV/x86_64/gaussian/16/C.01/g16/l9999.exe)

 Test job not archived.
 1\1\GINC-LEMON\Force\RB3LYP\CC-pVDZ\H2O4P1(1-)\YAGI\19-Jun-2021\0\\#P 
 B3LYP/cc-pVDZ EmpiricalDispersion=GD3 scf(conver=8) iop(4/5=100) nosym
 m Charge Force Prop=(Field,Read) pop=mk\\Gaussian run for QMMM in gene
 sis\\-1,1\P,-5.0163538043,-10.7070478641,-5.3933744057\O,-5.5887843127
 ,-10.8719651719,-3.8516605158\H,-5.458403737,-11.7796902351,-3.5105868
 636\O,-5.7381316175,-9.2959064435,-5.7860111831\H,-6.7182708841,-9.356
 6167716,-5.7007316088\O,-3.5032952675,-10.4556393788,-5.4259096579\O,-
 5.548499469,-11.869288752,-6.2683944271\\Version=ES64L-G16RevC.01\HF=-
 1130.3122446\RMSD=6.129e-09\RMSF=6.657e-03\Dipole=-2.034112,0.6492219,
 1.5899628\Quadrupole=150.6902528,-224.8879909,74.1977381,-163.6241766,
 -91.9059338,-246.4102483\PG=C01 [X(H2O4P1)]\\@


 BLACK HOLES SUCK.
 Job cpu time:       0 days  0 hours  0 minutes 36.5 seconds.
 Elapsed time:       0 days  0 hours  0 minutes  5.1 seconds.
 File lengths (MBytes):  RWF=     10 Int=      0 D2E=      0 Chk=      2 Scr=      1
 Normal termination of Gaussian 16 at Sat Jun 19 00:39:03 2021.

real	0m5.518s
user	0m35.806s
sys	0m0.977s
