 Entering Gaussian System, Link 0=g16
 Initial command:
 /APL/ISV/x86_64/gaussian/16/C.01/g16/l1.exe "/scr/yagi/water_cation.6711/Gau-6721.inp" -scrdir="/scr/yagi/water_cation.6711/"
 Entering Link 1 = /APL/ISV/x86_64/gaussian/16/C.01/g16/l1.exe PID=      6722.
  
 Copyright (c) 1988-2019, Gaussian, Inc.  All Rights Reserved.
  
 This is part of the Gaussian(R) 16 program.  It is based on
 the Gaussian(R) 09 system (copyright 2009, Gaussian, Inc.),
 the Gaussian(R) 03 system (copyright 2003, Gaussian, Inc.),
 the Gaussian(R) 98 system (copyright 1998, Gaussian, Inc.),
 the Gaussian(R) 94 system (copyright 1995, Gaussian, Inc.),
 the Gaussian 92(TM) system (copyright 1992, Gaussian, Inc.),
 the Gaussian 90(TM) system (copyright 1990, Gaussian, Inc.),
 the Gaussian 88(TM) system (copyright 1988, Gaussian, Inc.),
 the Gaussian 86(TM) system (copyright 1986, Carnegie Mellon
 University), and the Gaussian 82(TM) system (copyright 1983,
 Carnegie Mellon University). Gaussian is a federally registered
 trademark of Gaussian, Inc.
  
 This software contains proprietary and confidential information,
 including trade secrets, belonging to Gaussian, Inc.
  
 This software is provided under written license and may be
 used, copied, transmitted, or stored only in accord with that
 written license.
  
 The following legend is applicable only to US Government
 contracts under FAR:
  
                    RESTRICTED RIGHTS LEGEND
  
 Use, reproduction and disclosure by the US Government is
 subject to restrictions as set forth in subparagraphs (a)
 and (c) of the Commercial Computer Software - Restricted
 Rights clause in FAR 52.227-19.
  
 Gaussian, Inc.
 340 Quinnipiac St., Bldg. 40, Wallingford CT 06492
  
  
 ---------------------------------------------------------------
 Warning -- This program may not be used in any manner that
 competes with the business of Gaussian, Inc. or will provide
 assistance to any competitor of Gaussian, Inc.  The licensee
 of this program is prohibited from giving any competitor of
 Gaussian, Inc. access to this program.  By using this program,
 the user acknowledges that Gaussian, Inc. is engaged in the
 business of creating and licensing software in the field of
 computational chemistry and represents and warrants to the
 licensee that it is not a competitor of Gaussian, Inc. and that
 it will not use this program in any manner prohibited above.
 ---------------------------------------------------------------
  

 Cite this work as:
 Gaussian 16, Revision C.01,
 M. J. Frisch, G. W. Trucks, H. B. Schlegel, G. E. Scuseria, 
 M. A. Robb, J. R. Cheeseman, G. Scalmani, V. Barone, 
 G. A. Petersson, H. Nakatsuji, X. Li, M. Caricato, A. V. Marenich, 
 J. Bloino, B. G. Janesko, R. Gomperts, B. Mennucci, H. P. Hratchian, 
 J. V. Ortiz, A. F. Izmaylov, J. L. Sonnenberg, D. Williams-Young, 
 F. Ding, F. Lipparini, F. Egidi, J. Goings, B. Peng, A. Petrone, 
 T. Henderson, D. Ranasinghe, V. G. Zakrzewski, J. Gao, N. Rega, 
 G. Zheng, W. Liang, M. Hada, M. Ehara, K. Toyota, R. Fukuda, 
 J. Hasegawa, M. Ishida, T. Nakajima, Y. Honda, O. Kitao, H. Nakai, 
 T. Vreven, K. Throssell, J. A. Montgomery, Jr., J. E. Peralta, 
 F. Ogliaro, M. J. Bearpark, J. J. Heyd, E. N. Brothers, K. N. Kudin, 
 V. N. Staroverov, T. A. Keith, R. Kobayashi, J. Normand, 
 K. Raghavachari, A. P. Rendell, J. C. Burant, S. S. Iyengar, 
 J. Tomasi, M. Cossi, J. M. Millam, M. Klene, C. Adamo, R. Cammi, 
 J. W. Ochterski, R. L. Martin, K. Morokuma, O. Farkas, 
 J. B. Foresman, and D. J. Fox, Gaussian, Inc., Wallingford CT, 2019.
 
 ******************************************
 Gaussian 16:  ES64L-G16RevC.01  3-Jul-2019
                 8-Jun-2021 
 ******************************************
 %NprocShared=16
 Will use up to   16 processors via shared memory.
 %chk=water_cation.chk
 %mem=1gb
 --------------------
 #P B3LYP/cc-pVDZ opt
 --------------------
 1/18=20,19=15,26=3,38=1/1,3;
 2/9=110,12=2,17=6,18=5,40=1/2;
 3/5=16,11=2,25=1,30=1,71=1,74=-5/1,2,3;
 4//1;
 5/5=2,38=5/2;
 6/7=2,8=2,9=2,10=2,28=1/1;
 7//1,2,3,16;
 1/18=20,19=15,26=3/3(2);
 2/9=110/2;
 99//99;
 2/9=110/2;
 3/5=16,11=2,25=1,30=1,71=1,74=-5/1,2,3;
 4/5=5,16=3,69=1/1;
 5/5=2,38=5/2;
 7//1,2,3,16;
 1/18=20,19=15,26=3/3(-5);
 2/9=110/2;
 6/7=2,8=2,9=2,10=2,19=2,28=1/1;
 99/9=1/99;
 Leave Link    1 at Tue Jun  8 12:07:36 2021, MaxMem=   134217728 cpu:               0.4 elap:               0.0
 (Enter /APL/ISV/x86_64/gaussian/16/C.01/g16/l101.exe)
 ----------------------
 B3LYP/cc-pVDZ water +1
 ----------------------
 Symbolic Z-matrix:
 Charge =  1 Multiplicity = 2
 O                     0.        0.        0. 
 H                     1.5       0.        0. 
 H                     0.        1.5       0. 
 
 Add virtual bond connecting atoms H2         and O1         Dist= 2.83D+00.
 Add virtual bond connecting atoms H3         and O1         Dist= 2.83D+00.
 ITRead=  0  0  0
 MicOpt= -1 -1 -1
 NAtoms=      3 NQM=        3 NQMF=       0 NMMI=      0 NMMIF=      0
                NMic=       0 NMicF=      0.
                    Isotopes and Nuclear Properties:
 (Nuclear quadrupole moments (NQMom) in fm**2, nuclear magnetic moments (NMagM)
  in nuclear magnetons)

  Atom         1           2           3
 IAtWgt=          16           1           1
 AtmWgt=  15.9949146   1.0078250   1.0078250
 NucSpn=           0           1           1
 AtZEff=  -0.0000000  -0.0000000  -0.0000000
 NQMom=    0.0000000   0.0000000   0.0000000
 NMagM=    0.0000000   2.7928460   2.7928460
 AtZNuc=   8.0000000   1.0000000   1.0000000
 Leave Link  101 at Tue Jun  8 12:07:36 2021, MaxMem=   134217728 cpu:               1.9 elap:               0.1
 (Enter /APL/ISV/x86_64/gaussian/16/C.01/g16/l103.exe)

 GradGradGradGradGradGradGradGradGradGradGradGradGradGradGradGradGradGrad
 Berny optimization.
 Initialization pass.
                           ----------------------------
                           !    Initial Parameters    !
                           ! (Angstroms and Degrees)  !
 --------------------------                            --------------------------
 ! Name  Definition              Value          Derivative Info.                !
 --------------------------------------------------------------------------------
 ! R1    R(1,2)                  1.5            estimate D2E/DX2                !
 ! R2    R(1,3)                  1.5            estimate D2E/DX2                !
 ! A1    A(2,1,3)               90.0            estimate D2E/DX2                !
 --------------------------------------------------------------------------------
 Trust Radius=3.00D-01 FncErr=1.00D-07 GrdErr=1.00D-06 EigMax=2.50D+02 EigMin=1.00D-04
 Number of steps in this run=     20 maximum allowed number of steps=    100.
 GradGradGradGradGradGradGradGradGradGradGradGradGradGradGradGradGradGrad

 Leave Link  103 at Tue Jun  8 12:07:36 2021, MaxMem=   134217728 cpu:               0.1 elap:               0.0
 (Enter /APL/ISV/x86_64/gaussian/16/C.01/g16/l202.exe)
                          Input orientation:                          
 ---------------------------------------------------------------------
 Center     Atomic      Atomic             Coordinates (Angstroms)
 Number     Number       Type             X           Y           Z
 ---------------------------------------------------------------------
      1          8           0        0.000000    0.000000    0.000000
      2          1           0        1.500000    0.000000    0.000000
      3          1           0        0.000000    1.500000    0.000000
 ---------------------------------------------------------------------
                    Distance matrix (angstroms):
                    1          2          3
     1  O    0.000000
     2  H    1.500000   0.000000
     3  H    1.500000   2.121320   0.000000
 Stoichiometry    H2O(1+,2)
 Framework group  C2V[C2(O),SGV(H2)]
 Deg. of freedom     2
 Full point group                 C2V     NOp   4
 Largest Abelian subgroup         C2V     NOp   4
 Largest concise Abelian subgroup C2      NOp   2
                         Standard orientation:                         
 ---------------------------------------------------------------------
 Center     Atomic      Atomic             Coordinates (Angstroms)
 Number     Number       Type             X           Y           Z
 ---------------------------------------------------------------------
      1          8           0       -0.000000    0.000000    0.212132
      2          1           0       -0.000000    1.060660   -0.848528
      3          1           0       -0.000000   -1.060660   -0.848528
 ---------------------------------------------------------------------
 Rotational constants (GHZ):         250.9544735         222.8689353         118.0396647
 Leave Link  202 at Tue Jun  8 12:07:36 2021, MaxMem=   134217728 cpu:               0.2 elap:               0.0
 (Enter /APL/ISV/x86_64/gaussian/16/C.01/g16/l301.exe)
 Standard basis: CC-pVDZ (5D, 7F)
 Ernie: Thresh=  0.10000D-02 Tol=  0.10000D-05 Strict=F.
 Ernie:  2 primitive shells out of 32 were deleted.
 There are    12 symmetry adapted cartesian basis functions of A1  symmetry.
 There are     2 symmetry adapted cartesian basis functions of A2  symmetry.
 There are     4 symmetry adapted cartesian basis functions of B1  symmetry.
 There are     7 symmetry adapted cartesian basis functions of B2  symmetry.
 There are    11 symmetry adapted basis functions of A1  symmetry.
 There are     2 symmetry adapted basis functions of A2  symmetry.
 There are     4 symmetry adapted basis functions of B1  symmetry.
 There are     7 symmetry adapted basis functions of B2  symmetry.
    24 basis functions,    47 primitive gaussians,    25 cartesian basis functions
     5 alpha electrons        4 beta electrons
       nuclear repulsion energy         5.8940134460 Hartrees.
 IExCor=  402 DFT=T Ex+Corr=B3LYP ExCW=0 ScaHFX=  0.200000
 ScaDFX=  0.800000  0.720000  1.000000  0.810000 ScalE2=  1.000000  1.000000
 IRadAn=      5 IRanWt=     -1 IRanGd=            0 ICorTp=0 IEmpDi=  4
 NAtoms=    3 NActive=    3 NUniq=    2 SFac= 2.25D+00 NAtFMM=   60 NAOKFM=F Big=F
 Integral buffers will be    131072 words long.
 Raffenetti 2 integral format.
 Two-electron integral symmetry is turned on.
 Leave Link  301 at Tue Jun  8 12:07:36 2021, MaxMem=   134217728 cpu:               0.8 elap:               0.1
 (Enter /APL/ISV/x86_64/gaussian/16/C.01/g16/l302.exe)
 NPDir=0 NMtPBC=     1 NCelOv=     1 NCel=       1 NClECP=     1 NCelD=      1
         NCelK=      1 NCelE2=     1 NClLst=     1 CellRange=     0.0.
 One-electron integrals computed using PRISM.
 One-electron integral symmetry used in STVInt
 NBasis=    24 RedAO= T EigKep=  9.96D-02  NBF=    11     2     4     7
 NBsUse=    24 1.00D-06 EigRej= -1.00D+00 NBFU=    11     2     4     7
 Precomputing XC quadrature grid using
 IXCGrd= 4 IRadAn=           5 IRanWt=          -1 IRanGd=           0 AccXCQ= 0.00D+00.
 Generated NRdTot=       0 NPtTot=           0 NUsed=           0 NTot=          32
 NSgBfM=    25    25    25    25    25 MxSgAt=     3 MxSgA2=     3.
 Leave Link  302 at Tue Jun  8 12:07:36 2021, MaxMem=   134217728 cpu:               1.6 elap:               0.1
 (Enter /APL/ISV/x86_64/gaussian/16/C.01/g16/l303.exe)
 DipDrv:  MaxL=1.
 Leave Link  303 at Tue Jun  8 12:07:37 2021, MaxMem=   134217728 cpu:               0.4 elap:               0.1
 (Enter /APL/ISV/x86_64/gaussian/16/C.01/g16/l401.exe)
 ExpMin= 1.22D-01 ExpMax= 1.17D+04 ExpMxC= 4.01D+02 IAcc=3 IRadAn=         5 AccDes= 0.00D+00
 Harris functional with IExCor=  402 and IRadAn=       5 diagonalized for initial guess.
 HarFok:  IExCor=  402 AccDes= 0.00D+00 IRadAn=         5 IDoV= 1 UseB2=F ITyADJ=14
 ICtDFT=  3500011 ScaDFX=  1.000000  1.000000  1.000000  1.000000
 FoFCou: FMM=F IPFlag=           0 FMFlag=      100000 FMFlg1=           0
         NFxFlg=           0 DoJE=T BraDBF=F KetDBF=T FulRan=T
         wScrn=  0.000000 ICntrl=       500 IOpCl=  0 I1Cent=   200000004 NGrid=           0
         NMat0=    1 NMatS0=      1 NMatT0=    0 NMatD0=    1 NMtDS0=    0 NMtDT0=    0
 Petite list used in FoFCou.
 Harris En= -75.9585531512889    
 JPrj=0 DoOrth=F DoCkMO=F.
 Initial guess orbital symmetries:
 Alpha Orbitals:
       Occupied  (A1) (A1) (B2) (A1) (B1)
       Virtual   (A1) (B2) (A1) (B2) (B1) (A1) (B2) (A1) (A2) (A1)
                 (B1) (B2) (B2) (A1) (A2) (B1) (A1) (A1) (B2)
 Beta  Orbitals:
       Occupied  (A1) (A1) (B2) (A1)
       Virtual   (B1) (A1) (B2) (A1) (B2) (B1) (A1) (B2) (A1) (A2)
                 (A1) (B1) (B2) (B2) (A1) (A2) (B1) (A1) (A1) (B2)
 The electronic state of the initial guess is 2-B1.
 Initial guess <Sx>= 0.0000 <Sy>= 0.0000 <Sz>= 0.5000 <S**2>= 0.7500 S= 0.5000
 Leave Link  401 at Tue Jun  8 12:07:37 2021, MaxMem=   134217728 cpu:               1.7 elap:               0.1
 (Enter /APL/ISV/x86_64/gaussian/16/C.01/g16/l502.exe)
 Keep R1 and R2 ints in memory in symmetry-blocked form, NReq=13860511.
 FoFCou: FMM=F IPFlag=           0 FMFlag=           0 FMFlg1=           0
         NFxFlg=           0 DoJE=F BraDBF=F KetDBF=F FulRan=T
         wScrn=  0.000000 ICntrl=       600 IOpCl=  0 I1Cent=           0 NGrid=           0
         NMat0=    1 NMatS0=    300 NMatT0=    0 NMatD0=    1 NMtDS0=    0 NMtDT0=    0
 Petite list used in FoFCou.
 UHF open shell SCF:
 Using DIIS extrapolation, IDIIS=  1040.
 NGot=   134217728 LenX=   134189263 LenY=   134188197
 Requested convergence on RMS density matrix=1.00D-08 within 128 cycles.
 Requested convergence on MAX density matrix=1.00D-06.
 Requested convergence on             energy=1.00D-06.
 No special actions if energy rises.
 Integral accuracy reduced to 1.0D-05 until final iterations.

 Cycle   1  Pass 0  IDiag  1:
 E= -75.8221359194693    
 DIIS: error= 3.58D-02 at cycle   1 NSaved=   1.
 NSaved= 1 IEnMin= 1 EnMin= -75.8221359194693     IErMin= 1 ErrMin= 3.58D-02
 ErrMax= 3.58D-02  0.00D+00 EMaxC= 1.00D-01 BMatC= 6.70D-02 BMatP= 6.70D-02
 IDIUse=3 WtCom= 6.42D-01 WtEn= 3.58D-01
 Coeff-Com:  0.100D+01
 Coeff-En:   0.100D+01
 Coeff:      0.100D+01
 Gap=     0.336 Goal=   None    Shift=    0.000
 Gap=     0.210 Goal=   None    Shift=    0.000
 GapD=    0.210 DampG=1.000 DampE=0.500 DampFc=0.5000 IDamp=-1.
 Damping current iteration by 5.00D-01
 RMSDP=6.19D-03 MaxDP=7.84D-02              OVMax= 6.79D-02

 Cycle   2  Pass 0  IDiag  1:
 E= -75.8286827197323     Delta-E=       -0.006546800263 Rises=F Damp=T
 DIIS: error= 1.36D-02 at cycle   2 NSaved=   2.
 NSaved= 2 IEnMin= 2 EnMin= -75.8286827197323     IErMin= 2 ErrMin= 1.36D-02
 ErrMax= 1.36D-02  0.00D+00 EMaxC= 1.00D-01 BMatC= 1.08D-02 BMatP= 6.70D-02
 IDIUse=3 WtCom= 8.64D-01 WtEn= 1.36D-01
 Coeff-Com: -0.877D-01 0.109D+01
 Coeff-En:   0.000D+00 0.100D+01
 Coeff:     -0.758D-01 0.108D+01
 Gap=     0.308 Goal=   None    Shift=    0.000
 Gap=     0.224 Goal=   None    Shift=    0.000
 RMSDP=3.96D-03 MaxDP=4.50D-02 DE=-6.55D-03 OVMax= 8.20D-02

 Cycle   3  Pass 0  IDiag  1:
 E= -75.8309860466796     Delta-E=       -0.002303326947 Rises=F Damp=F
 DIIS: error= 1.85D-02 at cycle   3 NSaved=   3.
 NSaved= 3 IEnMin= 3 EnMin= -75.8309860466796     IErMin= 2 ErrMin= 1.36D-02
 ErrMax= 1.85D-02  0.00D+00 EMaxC= 1.00D-01 BMatC= 2.89D-02 BMatP= 1.08D-02
 IDIUse=2 WtCom= 0.00D+00 WtEn= 1.00D+00
 Coeff-En:   0.000D+00 0.369D+00 0.631D+00
 Coeff:      0.000D+00 0.369D+00 0.631D+00
 Gap=     0.342 Goal=   None    Shift=    0.000
 Gap=     0.212 Goal=   None    Shift=    0.000
 RMSDP=4.86D-03 MaxDP=5.49D-02 DE=-2.30D-03 OVMax= 8.02D-02

 Cycle   4  Pass 0  IDiag  1:
 E= -75.8287809581786     Delta-E=        0.002205088501 Rises=F Damp=F
 DIIS: error= 2.02D-02 at cycle   4 NSaved=   4.
 NSaved= 4 IEnMin= 3 EnMin= -75.8309860466796     IErMin= 2 ErrMin= 1.36D-02
 ErrMax= 2.02D-02  0.00D+00 EMaxC= 1.00D-01 BMatC= 4.00D-02 BMatP= 1.08D-02
 IDIUse=2 WtCom= 0.00D+00 WtEn= 1.00D+00
 Coeff-En:   0.000D+00 0.000D+00 0.548D+00 0.452D+00
 Coeff:      0.000D+00 0.000D+00 0.548D+00 0.452D+00
 Gap=     0.330 Goal=   None    Shift=    0.000
 Gap=     0.220 Goal=   None    Shift=    0.000
 RMSDP=2.48D-03 MaxDP=3.17D-02 DE= 2.21D-03 OVMax= 4.53D-02

 Cycle   5  Pass 0  IDiag  1:
 E= -75.8383700930233     Delta-E=       -0.009589134845 Rises=F Damp=F
 DIIS: error= 2.25D-03 at cycle   5 NSaved=   5.
 NSaved= 5 IEnMin= 5 EnMin= -75.8383700930233     IErMin= 5 ErrMin= 2.25D-03
 ErrMax= 2.25D-03  0.00D+00 EMaxC= 1.00D-01 BMatC= 2.14D-04 BMatP= 1.08D-02
 IDIUse=3 WtCom= 9.78D-01 WtEn= 2.25D-02
 Coeff-Com: -0.121D+00 0.224D+00-0.106D+00-0.279D+00 0.128D+01
 Coeff-En:   0.000D+00 0.000D+00 0.000D+00 0.000D+00 0.100D+01
 Coeff:     -0.118D+00 0.219D+00-0.104D+00-0.273D+00 0.128D+01
 Gap=     0.332 Goal=   None    Shift=    0.000
 Gap=     0.221 Goal=   None    Shift=    0.000
 RMSDP=6.34D-04 MaxDP=7.59D-03 DE=-9.59D-03 OVMax= 1.31D-02

 Cycle   6  Pass 0  IDiag  1:
 E= -75.8386134381026     Delta-E=       -0.000243345079 Rises=F Damp=F
 DIIS: error= 9.96D-04 at cycle   6 NSaved=   6.
 NSaved= 6 IEnMin= 6 EnMin= -75.8386134381026     IErMin= 6 ErrMin= 9.96D-04
 ErrMax= 9.96D-04  0.00D+00 EMaxC= 1.00D-01 BMatC= 6.25D-05 BMatP= 2.14D-04
 IDIUse=3 WtCom= 9.90D-01 WtEn= 9.96D-03
 Coeff-Com:  0.563D-01-0.696D-01-0.183D+00 0.315D-01-0.182D+01 0.298D+01
 Coeff-En:   0.000D+00 0.000D+00 0.000D+00 0.000D+00 0.000D+00 0.100D+01
 Coeff:      0.557D-01-0.689D-01-0.181D+00 0.312D-01-0.180D+01 0.296D+01
 Gap=     0.339 Goal=   None    Shift=    0.000
 Gap=     0.220 Goal=   None    Shift=    0.000
 RMSDP=1.39D-03 MaxDP=1.39D-02 DE=-2.43D-04 OVMax= 2.37D-02

 Cycle   7  Pass 0  IDiag  1:
 E= -75.8388591054213     Delta-E=       -0.000245667319 Rises=F Damp=F
 DIIS: error= 2.25D-04 at cycle   7 NSaved=   7.
 NSaved= 7 IEnMin= 7 EnMin= -75.8388591054213     IErMin= 7 ErrMin= 2.25D-04
 ErrMax= 2.25D-04  0.00D+00 EMaxC= 1.00D-01 BMatC= 2.19D-06 BMatP= 6.25D-05
 IDIUse=3 WtCom= 9.98D-01 WtEn= 2.25D-03
 Coeff-Com: -0.201D-01 0.399D-01 0.230D-02-0.362D-01 0.289D+00-0.543D+00
 Coeff-Com:  0.127D+01
 Coeff-En:   0.000D+00 0.000D+00 0.000D+00 0.000D+00 0.000D+00 0.000D+00
 Coeff-En:   0.100D+01
 Coeff:     -0.201D-01 0.398D-01 0.230D-02-0.361D-01 0.288D+00-0.542D+00
 Coeff:      0.127D+01
 Gap=     0.341 Goal=   None    Shift=    0.000
 Gap=     0.220 Goal=   None    Shift=    0.000
 RMSDP=2.06D-04 MaxDP=2.22D-03 DE=-2.46D-04 OVMax= 3.95D-03

 Cycle   8  Pass 0  IDiag  1:
 E= -75.8388642436246     Delta-E=       -0.000005138203 Rises=F Damp=F
 DIIS: error= 3.37D-05 at cycle   8 NSaved=   8.
 NSaved= 8 IEnMin= 8 EnMin= -75.8388642436246     IErMin= 8 ErrMin= 3.37D-05
 ErrMax= 3.37D-05  0.00D+00 EMaxC= 1.00D-01 BMatC= 8.12D-08 BMatP= 2.19D-06
 IDIUse=1 WtCom= 1.00D+00 WtEn= 0.00D+00
 Coeff-Com:  0.190D-02-0.447D-02 0.331D-02 0.318D-02-0.304D-02 0.300D-02
 Coeff-Com: -0.113D+00 0.111D+01
 Coeff:      0.190D-02-0.447D-02 0.331D-02 0.318D-02-0.304D-02 0.300D-02
 Coeff:     -0.113D+00 0.111D+01
 Gap=     0.341 Goal=   None    Shift=    0.000
 Gap=     0.220 Goal=   None    Shift=    0.000
 RMSDP=1.66D-05 MaxDP=2.30D-04 DE=-5.14D-06 OVMax= 3.91D-04

 Cycle   9  Pass 0  IDiag  1:
 E= -75.8388642885432     Delta-E=       -0.000000044919 Rises=F Damp=F
 DIIS: error= 6.75D-06 at cycle   9 NSaved=   9.
 NSaved= 9 IEnMin= 9 EnMin= -75.8388642885432     IErMin= 9 ErrMin= 6.75D-06
 ErrMax= 6.75D-06  0.00D+00 EMaxC= 1.00D-01 BMatC= 2.62D-09 BMatP= 8.12D-08
 IDIUse=1 WtCom= 1.00D+00 WtEn= 0.00D+00
 Coeff-Com:  0.432D-04 0.149D-03-0.114D-02 0.448D-03-0.898D-02 0.178D-01
 Coeff-Com: -0.642D-02-0.328D+00 0.133D+01
 Coeff:      0.432D-04 0.149D-03-0.114D-02 0.448D-03-0.898D-02 0.178D-01
 Coeff:     -0.642D-02-0.328D+00 0.133D+01
 Gap=     0.341 Goal=   None    Shift=    0.000
 Gap=     0.220 Goal=   None    Shift=    0.000
 RMSDP=1.77D-06 MaxDP=3.18D-05 DE=-4.49D-08 OVMax= 4.91D-05

 Initial convergence to 1.0D-05 achieved.  Increase integral accuracy.
 Cycle  10  Pass 1  IDiag  1:
 E= -75.8388639433365     Delta-E=        0.000000345207 Rises=F Damp=F
 DIIS: error= 7.07D-07 at cycle   1 NSaved=   1.
 NSaved= 1 IEnMin= 1 EnMin= -75.8388639433365     IErMin= 1 ErrMin= 7.07D-07
 ErrMax= 7.07D-07  0.00D+00 EMaxC= 1.00D-01 BMatC= 3.61D-11 BMatP= 3.61D-11
 IDIUse=1 WtCom= 1.00D+00 WtEn= 0.00D+00
 Coeff-Com:  0.100D+01
 Coeff:      0.100D+01
 Gap=     0.341 Goal=   None    Shift=    0.000
 Gap=     0.220 Goal=   None    Shift=    0.000
 RMSDP=1.77D-06 MaxDP=3.18D-05 DE= 3.45D-07 OVMax= 5.27D-06

 Cycle  11  Pass 1  IDiag  1:
 E= -75.8388639433502     Delta-E=       -0.000000000014 Rises=F Damp=F
 DIIS: error= 7.33D-07 at cycle   2 NSaved=   2.
 NSaved= 2 IEnMin= 2 EnMin= -75.8388639433502     IErMin= 1 ErrMin= 7.07D-07
 ErrMax= 7.33D-07  0.00D+00 EMaxC= 1.00D-01 BMatC= 4.27D-11 BMatP= 3.61D-11
 IDIUse=1 WtCom= 1.00D+00 WtEn= 0.00D+00
 Coeff-Com:  0.532D+00 0.468D+00
 Coeff:      0.532D+00 0.468D+00
 Gap=     0.341 Goal=   None    Shift=    0.000
 Gap=     0.220 Goal=   None    Shift=    0.000
 RMSDP=1.31D-07 MaxDP=1.83D-06 DE=-1.37D-11 OVMax= 2.61D-06

 Cycle  12  Pass 1  IDiag  1:
 E= -75.8388639433588     Delta-E=       -0.000000000009 Rises=F Damp=F
 DIIS: error= 4.66D-07 at cycle   3 NSaved=   3.
 NSaved= 3 IEnMin= 3 EnMin= -75.8388639433588     IErMin= 3 ErrMin= 4.66D-07
 ErrMax= 4.66D-07  0.00D+00 EMaxC= 1.00D-01 BMatC= 1.34D-11 BMatP= 3.61D-11
 IDIUse=1 WtCom= 1.00D+00 WtEn= 0.00D+00
 Coeff-Com: -0.224D+00 0.355D+00 0.869D+00
 Coeff:     -0.224D+00 0.355D+00 0.869D+00
 Gap=     0.341 Goal=   None    Shift=    0.000
 Gap=     0.220 Goal=   None    Shift=    0.000
 RMSDP=9.52D-08 MaxDP=1.71D-06 DE=-8.61D-12 OVMax= 2.74D-06

 Cycle  13  Pass 1  IDiag  1:
 E= -75.8388639433646     Delta-E=       -0.000000000006 Rises=F Damp=F
 DIIS: error= 1.16D-07 at cycle   4 NSaved=   4.
 NSaved= 4 IEnMin= 4 EnMin= -75.8388639433646     IErMin= 4 ErrMin= 1.16D-07
 ErrMax= 1.16D-07  0.00D+00 EMaxC= 1.00D-01 BMatC= 6.12D-13 BMatP= 1.34D-11
 IDIUse=1 WtCom= 1.00D+00 WtEn= 0.00D+00
 Coeff-Com:  0.948D-02-0.187D+00-0.166D+00 0.134D+01
 Coeff:      0.948D-02-0.187D+00-0.166D+00 0.134D+01
 Gap=     0.341 Goal=   None    Shift=    0.000
 Gap=     0.220 Goal=   None    Shift=    0.000
 RMSDP=5.07D-08 MaxDP=7.10D-07 DE=-5.78D-12 OVMax= 1.16D-06

 Cycle  14  Pass 1  IDiag  1:
 E= -75.8388639433655     Delta-E=       -0.000000000001 Rises=F Damp=F
 DIIS: error= 4.30D-08 at cycle   5 NSaved=   5.
 NSaved= 5 IEnMin= 5 EnMin= -75.8388639433655     IErMin= 5 ErrMin= 4.30D-08
 ErrMax= 4.30D-08  0.00D+00 EMaxC= 1.00D-01 BMatC= 1.16D-13 BMatP= 6.12D-13
 IDIUse=1 WtCom= 1.00D+00 WtEn= 0.00D+00
 Coeff-Com:  0.254D-01 0.178D-01-0.506D-01-0.490D+00 0.150D+01
 Coeff:      0.254D-01 0.178D-01-0.506D-01-0.490D+00 0.150D+01
 Gap=     0.341 Goal=   None    Shift=    0.000
 Gap=     0.220 Goal=   None    Shift=    0.000
 RMSDP=3.30D-08 MaxDP=3.40D-07 DE=-9.24D-13 OVMax= 5.88D-07

 Cycle  15  Pass 1  IDiag  1:
 E= -75.8388639433659     Delta-E=       -0.000000000000 Rises=F Damp=F
 DIIS: error= 2.39D-08 at cycle   6 NSaved=   6.
 NSaved= 6 IEnMin= 6 EnMin= -75.8388639433659     IErMin= 6 ErrMin= 2.39D-08
 ErrMax= 2.39D-08  0.00D+00 EMaxC= 1.00D-01 BMatC= 3.71D-14 BMatP= 1.16D-13
 IDIUse=1 WtCom= 1.00D+00 WtEn= 0.00D+00
 Coeff-Com: -0.164D-01 0.805D-01 0.112D+00-0.482D+00-0.588D+00 0.189D+01
 Coeff:     -0.164D-01 0.805D-01 0.112D+00-0.482D+00-0.588D+00 0.189D+01
 Gap=     0.341 Goal=   None    Shift=    0.000
 Gap=     0.220 Goal=   None    Shift=    0.000
 RMSDP=3.47D-08 MaxDP=3.35D-07 DE=-3.84D-13 OVMax= 5.68D-07

 Cycle  16  Pass 1  IDiag  1:
 E= -75.8388639433660     Delta-E=       -0.000000000000 Rises=F Damp=F
 DIIS: error= 5.93D-09 at cycle   7 NSaved=   7.
 NSaved= 7 IEnMin= 7 EnMin= -75.8388639433660     IErMin= 7 ErrMin= 5.93D-09
 ErrMax= 5.93D-09  0.00D+00 EMaxC= 1.00D-01 BMatC= 2.28D-15 BMatP= 3.71D-14
 IDIUse=1 WtCom= 1.00D+00 WtEn= 0.00D+00
 Coeff-Com: -0.757D-03-0.907D-02 0.386D-02 0.544D-01-0.620D-01-0.111D+00
 Coeff-Com:  0.112D+01
 Coeff:     -0.757D-03-0.907D-02 0.386D-02 0.544D-01-0.620D-01-0.111D+00
 Coeff:      0.112D+01
 Gap=     0.341 Goal=   None    Shift=    0.000
 Gap=     0.220 Goal=   None    Shift=    0.000
 RMSDP=3.19D-09 MaxDP=4.00D-08 DE=-1.28D-13 OVMax= 6.50D-08

 SCF Done:  E(UB3LYP) =  -75.8388639434     A.U. after   16 cycles
            NFock= 16  Conv=0.32D-08     -V/T= 2.0118
 <Sx>= 0.0000 <Sy>= 0.0000 <Sz>= 0.5000 <S**2>= 0.7919 S= 0.5207
 <L.S>= 0.000000000000E+00
 KE= 7.495684895104D+01 PE=-1.876392671526D+02 EE= 3.094954081224D+01
 Annihilation of the first spin contaminant:
 S**2 before annihilation     0.7919,   after     0.7510
 Leave Link  502 at Tue Jun  8 12:07:37 2021, MaxMem=   134217728 cpu:               3.1 elap:               0.2
 (Enter /APL/ISV/x86_64/gaussian/16/C.01/g16/l601.exe)
 Copying SCF densities to generalized density rwf, IOpCl= 1 IROHF=0.

 **********************************************************************

            Population analysis using the SCF Density.

 **********************************************************************

 Orbital symmetries:
 Alpha Orbitals:
       Occupied  (A1) (A1) (B1) (B2) (A1)
       Virtual   (A1) (B2) (A1) (B2) (B1) (A1) (B2) (A1) (A2) (A1)
                 (B1) (B2) (B2) (A1) (A2) (B1) (A1) (A1) (B2)
 Beta  Orbitals:
       Occupied  (A1) (A1) (B2) (A1)
       Virtual   (B1) (A1) (B2) (A1) (B2) (B1) (A1) (B2) (A1) (A2)
                 (A1) (B1) (B2) (B2) (A1) (A1) (A2) (B1) (A1) (B2)
 The electronic state is 2-B1.
 Alpha  occ. eigenvalues --  -19.65836  -1.35572  -0.78604  -0.77937  -0.76808
 Alpha virt. eigenvalues --   -0.42733  -0.39055   0.14762   0.16897   0.45962
 Alpha virt. eigenvalues --    0.58232   0.62280   0.80490   0.90469   0.93307
 Alpha virt. eigenvalues --    1.01544   1.04966   1.10057   1.50411   2.16382
 Alpha virt. eigenvalues --    2.16748   2.22607   2.44507   2.62696
  Beta  occ. eigenvalues --  -19.62510  -1.25973  -0.74948  -0.73485
  Beta virt. eigenvalues --   -0.51475  -0.42821  -0.40004   0.12918   0.14962
  Beta virt. eigenvalues --    0.54430   0.59730   0.64181   0.82586   0.87826
  Beta virt. eigenvalues --    0.91640   1.00748   1.02471   1.08865   1.53992
  Beta virt. eigenvalues --    2.25809   2.25933   2.26309   2.54353   2.65024
          Condensed to atoms (all electrons):
               1          2          3
     1  O    7.606115   0.175047   0.175047
     2  H    0.175047   0.350234  -0.003386
     3  H    0.175047  -0.003386   0.350234
          Atomic-Atomic Spin Densities.
               1          2          3
     1  O    1.286274  -0.015755  -0.015755
     2  H   -0.015755  -0.112618   0.000991
     3  H   -0.015755   0.000991  -0.112618
 Mulliken charges and spin densities:
               1          2
     1  O    0.043791   1.254764
     2  H    0.478105  -0.127382
     3  H    0.478105  -0.127382
 Sum of Mulliken charges =   1.00000   1.00000
 Mulliken charges and spin densities with hydrogens summed into heavy atoms:
               1          2
     1  O    1.000000   1.000000
 Electronic spatial extent (au):  <R**2>=             19.9881
 Charge=              1.0000 electrons
 Dipole moment (field-independent basis, Debye):
    X=             -0.0000    Y=              0.0000    Z=             -3.8824  Tot=              3.8824
 Quadrupole moment (field-independent basis, Debye-Ang):
   XX=             -5.3912   YY=             -0.0387   ZZ=             -2.0018
   XY=              0.0000   XZ=              0.0000   YZ=             -0.0000
 Traceless Quadrupole moment (field-independent basis, Debye-Ang):
   XX=             -2.9139   YY=              2.4385   ZZ=              0.4754
   XY=              0.0000   XZ=              0.0000   YZ=             -0.0000
 Octapole moment (field-independent basis, Debye-Ang**2):
  XXX=              0.0000  YYY=              0.0000  ZZZ=             -4.1276  XYY=             -0.0000
  XXY=              0.0000  XXZ=             -0.0560  XZZ=             -0.0000  YZZ=              0.0000
  YYZ=             -5.6953  XYZ=             -0.0000
 Hexadecapole moment (field-independent basis, Debye-Ang**3):
 XXXX=             -3.4483 YYYY=             -2.2774 ZZZZ=             -5.6180 XXXY=             -0.0000
 XXXZ=             -0.0000 YYYX=              0.0000 YYYZ=             -0.0000 ZZZX=              0.0000
 ZZZY=             -0.0000 XXYY=             -2.2552 XXZZ=             -2.0411 YYZZ=              1.9332
 XXYZ=              0.0000 YYXZ=              0.0000 ZZXY=              0.0000
 N-N= 5.894013446007D+00 E-N=-1.876392673070D+02  KE= 7.495684895104D+01
 Symmetry A1   KE= 6.840110044285D+01
 Symmetry A2   KE= 2.925606825345D-35
 Symmetry B1   KE= 2.721429520028D+00
 Symmetry B2   KE= 3.834318988157D+00
 Symmetry A1   SP=-7.595944975910D-15
 Symmetry A2   SP=-1.372730066956D-36
 Symmetry B1   SP= 1.000000000000D+00
 Symmetry B2   SP= 2.641217157445D-15
                          Isotropic Fermi Contact Couplings
        Atom                 a.u.       MegaHertz       Gauss      10(-4) cm-1
     1  O(17)              0.13603     -82.46064     -29.42401     -27.50591
     2  H(1)              -0.04529    -202.42297     -72.22955     -67.52104
     3  H(1)              -0.04529    -202.42297     -72.22955     -67.52104
 --------------------------------------------------------
       Center         ----  Spin Dipole Couplings  ----
                      3XX-RR        3YY-RR        3ZZ-RR
 --------------------------------------------------------
     1   Atom        3.502010     -1.758338     -1.743672
     2   Atom       -0.036444      0.016478      0.019966
     3   Atom       -0.036444      0.016478      0.019966
 --------------------------------------------------------
                        XY            XZ            YZ
 --------------------------------------------------------
     1   Atom       -0.000000     -0.000000      0.000000
     2   Atom       -0.000000      0.000000     -0.069270
     3   Atom        0.000000      0.000000      0.069270
 --------------------------------------------------------


 ---------------------------------------------------------------------------------
              Anisotropic Spin Dipole Couplings in Principal Axis System
 ---------------------------------------------------------------------------------

       Atom             a.u.   MegaHertz   Gauss  10(-4) cm-1        Axes

              Baa    -1.7583   127.232    45.400    42.440  0.0000  1.0000 -0.0000
     1 O(17)  Bbb    -1.7437   126.171    45.021    42.086  0.0000  0.0000  1.0000
              Bcc     3.5020  -253.403   -90.420   -84.526  1.0000 -0.0000 -0.0000
 
              Baa    -0.0511   -27.248    -9.723    -9.089 -0.0000  0.7160  0.6982
     2 H(1)   Bbb    -0.0364   -19.445    -6.938    -6.486  1.0000  0.0000  0.0000
              Bcc     0.0875    46.693    16.661    15.575  0.0000 -0.6982  0.7160
 
              Baa    -0.0511   -27.248    -9.723    -9.089  0.0000  0.7160 -0.6982
     3 H(1)   Bbb    -0.0364   -19.445    -6.938    -6.486  1.0000 -0.0000  0.0000
              Bcc     0.0875    46.693    16.661    15.575  0.0000  0.6982  0.7160
 

 ---------------------------------------------------------------------------------

 No NMR shielding tensors so no spin-rotation constants.
 Leave Link  601 at Tue Jun  8 12:07:37 2021, MaxMem=   134217728 cpu:               2.1 elap:               0.2
 (Enter /APL/ISV/x86_64/gaussian/16/C.01/g16/l701.exe)
 ... and contract with generalized density number  0.
 Compute integral first derivatives.
 Leave Link  701 at Tue Jun  8 12:07:37 2021, MaxMem=   134217728 cpu:               1.5 elap:               0.1
 (Enter /APL/ISV/x86_64/gaussian/16/C.01/g16/l702.exe)
 L702 exits ... SP integral derivatives will be done elsewhere.
 Leave Link  702 at Tue Jun  8 12:07:37 2021, MaxMem=   134217728 cpu:               0.3 elap:               0.0
 (Enter /APL/ISV/x86_64/gaussian/16/C.01/g16/l703.exe)
 Integral derivatives from FoFJK, PRISM(SPDF).
 Compute integral first derivatives, UseDBF=F ICtDFT=           0.
 Calling FoFJK, ICntrl=      2127 FMM=F ISym2X=1 I1Cent= 0 IOpClX= 1 NMat=1 NMatS=1 NMatT=0.
 FoFJK:  IHMeth= 1 ICntrl=    2127 DoSepK=F KAlg= 0 I1Cent=           0 FoldK=F
 IRaf=         0 NMat=       1 IRICut=       1 DoRegI=T DoRafI=F ISym2E= 1 IDoP0=0 IntGTp=1.
 FoFCou: FMM=F IPFlag=           0 FMFlag=      100000 FMFlg1=         800
         NFxFlg=           0 DoJE=F BraDBF=F KetDBF=F FulRan=T
         wScrn=  0.000000 ICntrl=      2127 IOpCl=  1 I1Cent=           0 NGrid=           0
         NMat0=    1 NMatS0=      1 NMatT0=    0 NMatD0=    1 NMtDS0=    0 NMtDT0=    0
 Petite list used in FoFCou.
 Leave Link  703 at Tue Jun  8 12:07:37 2021, MaxMem=   134217728 cpu:               2.1 elap:               0.2
 (Enter /APL/ISV/x86_64/gaussian/16/C.01/g16/l716.exe)
 Dipole        =-1.18152203D-16 0.00000000D+00-1.52744692D+00
 ***** Axes restored to original set *****
 -------------------------------------------------------------------
 Center     Atomic                   Forces (Hartrees/Bohr)
 Number     Number              X              Y              Z
 -------------------------------------------------------------------
      1        8           0.093363649    0.093363649    0.000000000
      2        1          -0.085752005   -0.007611644   -0.000000000
      3        1          -0.007611644   -0.085752005   -0.000000000
 -------------------------------------------------------------------
 Cartesian Forces:  Max     0.093363649 RMS     0.059866730
 Leave Link  716 at Tue Jun  8 12:07:37 2021, MaxMem=   134217728 cpu:               0.5 elap:               0.1
 (Enter /APL/ISV/x86_64/gaussian/16/C.01/g16/l103.exe)

 GradGradGradGradGradGradGradGradGradGradGradGradGradGradGradGradGradGrad
 Berny optimization.
 FormGI is forming the generalized inverse of G from B-inverse, IUseBI=4.
 Internal  Forces:  Max     0.085752005 RMS     0.071115707
 Search for a local minimum.
 Step number   1 out of a maximum of   20
 All quantities printed in internal units (Hartrees-Bohrs-Radians)
 RMS Force = .71116D-01 SwitMx=.10000D-02 MixMth= 1
 Mixed Optimization -- RFO/linear search
 Second derivative matrix not updated -- first step.
 The second derivative matrix:
                          R1        R2        A1
           R1           0.11333
           R2           0.00000   0.11333
           A1           0.00000   0.00000   0.16000
 ITU=  0
     Eigenvalues ---    0.11333   0.11333   0.16000
 RFO step:  Lambda=-7.85844033D-02 EMin= 1.13327293D-01
 Linear search not attempted -- first point.
 Maximum step size (   0.300) exceeded in Quadratic search.
    -- Step size scaled by   0.470
 Iteration  1 RMS(Cart)=  0.11847413 RMS(Int)=  0.00891680
 Iteration  2 RMS(Cart)=  0.00893210 RMS(Int)=  0.00000806
 Iteration  3 RMS(Cart)=  0.00001037 RMS(Int)=  0.00000000
 Iteration  4 RMS(Cart)=  0.00000000 RMS(Int)=  0.00000000
 ITry= 1 IFail=0 DXMaxC= 1.22D-01 DCOld= 1.00D+10 DXMaxT= 3.00D-01 DXLimC= 3.00D+00 Rises=F
 ClnCor:  largest displacement from symmetrization is 1.35D-15 for atom     3.
 Variable       Old X    -DE/DX   Delta X   Delta X   Delta X     New X
                                 (Linear)    (Quad)   (Total)
    R1        2.83459  -0.08575   0.00000  -0.20999  -0.20999   2.62460
    R2        2.83459  -0.08575   0.00000  -0.20999  -0.20999   2.62460
    A1        1.57080   0.02158   0.00000   0.04250   0.04250   1.61330
         Item               Value     Threshold  Converged?
 Maximum Force            0.085752     0.000450     NO 
 RMS     Force            0.071116     0.000300     NO 
 Maximum Displacement     0.121801     0.001800     NO 
 RMS     Displacement     0.125985     0.001200     NO 
 Predicted change in Energy=-3.178966D-02
 Lowest energy point so far.  Saving SCF results.
 GradGradGradGradGradGradGradGradGradGradGradGradGradGradGradGradGradGrad

 Leave Link  103 at Tue Jun  8 12:07:38 2021, MaxMem=   134217728 cpu:               0.1 elap:               0.0
 (Enter /APL/ISV/x86_64/gaussian/16/C.01/g16/l202.exe)
                          Input orientation:                          
 ---------------------------------------------------------------------
 Center     Atomic      Atomic             Coordinates (Angstroms)
 Number     Number       Type             X           Y           Z
 ---------------------------------------------------------------------
      1          8           0        0.046983    0.046983   -0.000000
      2          1           0        1.435546    0.017471   -0.000000
      3          1           0        0.017471    1.435546    0.000000
 ---------------------------------------------------------------------
                    Distance matrix (angstroms):
                    1          2          3
     1  O    0.000000
     2  H    1.388877   0.000000
     3  H    1.388877   2.005460   0.000000
 Stoichiometry    H2O(1+,2)
 Framework group  C2V[C2(O),SGV(H2)]
 Deg. of freedom     2
 Full point group                 C2V     NOp   4
 RotChk:  IX=0 Diff= 4.19D-16
 Largest Abelian subgroup         C2V     NOp   4
 Largest concise Abelian subgroup C2      NOp   2
                         Standard orientation:                         
 ---------------------------------------------------------------------
 Center     Atomic      Atomic             Coordinates (Angstroms)
 Number     Number       Type             X           Y           Z
 ---------------------------------------------------------------------
      1          8           0        0.000000   -0.000000    0.192199
      2          1           0       -0.000000    1.002730   -0.768796
      3          1           0       -0.000000   -1.002730   -0.768796
 ---------------------------------------------------------------------
 Rotational constants (GHZ):         305.7070283         249.3641287         137.3380075
 Leave Link  202 at Tue Jun  8 12:07:38 2021, MaxMem=   134217728 cpu:               0.2 elap:               0.0
 (Enter /APL/ISV/x86_64/gaussian/16/C.01/g16/l301.exe)
 Standard basis: CC-pVDZ (5D, 7F)
 Ernie: Thresh=  0.10000D-02 Tol=  0.10000D-05 Strict=F.
 Ernie:  2 primitive shells out of 32 were deleted.
 There are    12 symmetry adapted cartesian basis functions of A1  symmetry.
 There are     2 symmetry adapted cartesian basis functions of A2  symmetry.
 There are     4 symmetry adapted cartesian basis functions of B1  symmetry.
 There are     7 symmetry adapted cartesian basis functions of B2  symmetry.
 There are    11 symmetry adapted basis functions of A1  symmetry.
 There are     2 symmetry adapted basis functions of A2  symmetry.
 There are     4 symmetry adapted basis functions of B1  symmetry.
 There are     7 symmetry adapted basis functions of B2  symmetry.
    24 basis functions,    47 primitive gaussians,    25 cartesian basis functions
     5 alpha electrons        4 beta electrons
       nuclear repulsion energy         6.3600431235 Hartrees.
 IExCor=  402 DFT=T Ex+Corr=B3LYP ExCW=0 ScaHFX=  0.200000
 ScaDFX=  0.800000  0.720000  1.000000  0.810000 ScalE2=  1.000000  1.000000
 IRadAn=      5 IRanWt=     -1 IRanGd=            0 ICorTp=0 IEmpDi=  4
 NAtoms=    3 NActive=    3 NUniq=    2 SFac= 2.25D+00 NAtFMM=   60 NAOKFM=F Big=F
 Integral buffers will be    131072 words long.
 Raffenetti 2 integral format.
 Two-electron integral symmetry is turned on.
 Leave Link  301 at Tue Jun  8 12:07:38 2021, MaxMem=   134217728 cpu:               0.9 elap:               0.1
 (Enter /APL/ISV/x86_64/gaussian/16/C.01/g16/l302.exe)
 NPDir=0 NMtPBC=     1 NCelOv=     1 NCel=       1 NClECP=     1 NCelD=      1
         NCelK=      1 NCelE2=     1 NClLst=     1 CellRange=     0.0.
 One-electron integrals computed using PRISM.
 One-electron integral symmetry used in STVInt
 NBasis=    24 RedAO= T EigKep=  8.22D-02  NBF=    11     2     4     7
 NBsUse=    24 1.00D-06 EigRej= -1.00D+00 NBFU=    11     2     4     7
 Precomputing XC quadrature grid using
 IXCGrd= 4 IRadAn=           5 IRanWt=          -1 IRanGd=           0 AccXCQ= 0.00D+00.
 Generated NRdTot=       0 NPtTot=           0 NUsed=           0 NTot=          32
 NSgBfM=    25    25    25    25    25 MxSgAt=     3 MxSgA2=     3.
 Leave Link  302 at Tue Jun  8 12:07:38 2021, MaxMem=   134217728 cpu:               1.8 elap:               0.1
 (Enter /APL/ISV/x86_64/gaussian/16/C.01/g16/l303.exe)
 DipDrv:  MaxL=1.
 Leave Link  303 at Tue Jun  8 12:07:38 2021, MaxMem=   134217728 cpu:               0.4 elap:               0.0
 (Enter /APL/ISV/x86_64/gaussian/16/C.01/g16/l401.exe)
 Initial guess from the checkpoint file:  "water_cation.chk"
 B after Tr=     0.000000   -0.000000   -0.000000
         Rot=    1.000000    0.000000   -0.000000    0.000000 Ang=   0.00 deg.
 Guess basis will be translated and rotated to current coordinates.
 JPrj=2 DoOrth=T DoCkMO=T.
 Initial guess orbital symmetries:
 Alpha Orbitals:
       Occupied  (A1) (A1) (B1) (B2) (A1)
       Virtual   (A1) (B2) (A1) (B2) (B1) (A1) (B2) (A1) (A2) (A1)
                 (B1) (B2) (B2) (A1) (A2) (B1) (A1) (A1) (B2)
 Beta  Orbitals:
       Occupied  (A1) (A1) (B2) (A1)
       Virtual   (B1) (A1) (B2) (A1) (B2) (B1) (A1) (B2) (A1) (A2)
                 (A1) (B1) (B2) (B2) (A1) (A1) (A2) (B1) (A1) (B2)
 The electronic state of the initial guess is 2-B1.
 Initial guess <Sx>= 0.0000 <Sy>= 0.0000 <Sz>= 0.5000 <S**2>= 0.7883 S= 0.5190
 Generating alternative initial guess.
 ExpMin= 1.22D-01 ExpMax= 1.17D+04 ExpMxC= 4.01D+02 IAcc=3 IRadAn=         5 AccDes= 0.00D+00
 Harris functional with IExCor=  402 and IRadAn=       5 diagonalized for initial guess.
 HarFok:  IExCor=  402 AccDes= 0.00D+00 IRadAn=         5 IDoV= 1 UseB2=F ITyADJ=14
 ICtDFT=  3500011 ScaDFX=  1.000000  1.000000  1.000000  1.000000
 FoFCou: FMM=F IPFlag=           0 FMFlag=      100000 FMFlg1=           0
         NFxFlg=           0 DoJE=T BraDBF=F KetDBF=T FulRan=T
         wScrn=  0.000000 ICntrl=       500 IOpCl=  0 I1Cent=   200000004 NGrid=           0
         NMat0=    1 NMatS0=      1 NMatT0=    0 NMatD0=    1 NMtDS0=    0 NMtDT0=    0
 Petite list used in FoFCou.
 Harris En= -75.9928597256649    
 Leave Link  401 at Tue Jun  8 12:07:38 2021, MaxMem=   134217728 cpu:               2.7 elap:               0.2
 (Enter /APL/ISV/x86_64/gaussian/16/C.01/g16/l502.exe)
 Keep R1 and R2 ints in memory in symmetry-blocked form, NReq=13860511.
 FoFCou: FMM=F IPFlag=           0 FMFlag=           0 FMFlg1=           0
         NFxFlg=           0 DoJE=F BraDBF=F KetDBF=F FulRan=T
         wScrn=  0.000000 ICntrl=       600 IOpCl=  0 I1Cent=           0 NGrid=           0
         NMat0=    1 NMatS0=    300 NMatT0=    0 NMatD0=    1 NMtDS0=    0 NMtDT0=    0
 Petite list used in FoFCou.
 UHF open shell SCF:
 Using DIIS extrapolation, IDIIS=  1040.
 NGot=   134217728 LenX=   134189263 LenY=   134188197
 Requested convergence on RMS density matrix=1.00D-08 within 128 cycles.
 Requested convergence on MAX density matrix=1.00D-06.
 Requested convergence on             energy=1.00D-06.
 No special actions if energy rises.
 Integral accuracy reduced to 1.0D-05 until final iterations.

 Cycle   1  Pass 0  IDiag  1:
 E= -75.8743154694740    
 DIIS: error= 9.57D-03 at cycle   1 NSaved=   1.
 NSaved= 1 IEnMin= 1 EnMin= -75.8743154694740     IErMin= 1 ErrMin= 9.57D-03
 ErrMax= 9.57D-03  0.00D+00 EMaxC= 1.00D-01 BMatC= 6.36D-03 BMatP= 6.36D-03
 IDIUse=3 WtCom= 9.04D-01 WtEn= 9.57D-02
 Coeff-Com:  0.100D+01
 Coeff-En:   0.100D+01
 Coeff:      0.100D+01
 Gap=     0.405 Goal=   None    Shift=    0.000
 Gap=     0.222 Goal=   None    Shift=    0.000
 GapD=    0.222 DampG=1.000 DampE=1.000 DampFc=1.0000 IDamp=-1.
 RMSDP=2.42D-03 MaxDP=2.82D-02              OVMax= 4.31D-02

 Cycle   2  Pass 0  IDiag  1:
 E= -75.8755130259354     Delta-E=       -0.001197556461 Rises=F Damp=F
 DIIS: error= 7.52D-03 at cycle   2 NSaved=   2.
 NSaved= 2 IEnMin= 2 EnMin= -75.8755130259354     IErMin= 2 ErrMin= 7.52D-03
 ErrMax= 7.52D-03  0.00D+00 EMaxC= 1.00D-01 BMatC= 4.91D-03 BMatP= 6.36D-03
 IDIUse=3 WtCom= 9.25D-01 WtEn= 7.52D-02
 Coeff-Com:  0.454D+00 0.546D+00
 Coeff-En:   0.757D-01 0.924D+00
 Coeff:      0.426D+00 0.574D+00
 Gap=     0.377 Goal=   None    Shift=    0.000
 Gap=     0.226 Goal=   None    Shift=    0.000
 RMSDP=1.45D-03 MaxDP=1.75D-02 DE=-1.20D-03 OVMax= 2.31D-02

 Cycle   3  Pass 0  IDiag  1:
 E= -75.8760878595668     Delta-E=       -0.000574833631 Rises=F Damp=F
 DIIS: error= 4.86D-03 at cycle   3 NSaved=   3.
 NSaved= 3 IEnMin= 3 EnMin= -75.8760878595668     IErMin= 3 ErrMin= 4.86D-03
 ErrMax= 4.86D-03  0.00D+00 EMaxC= 1.00D-01 BMatC= 2.21D-03 BMatP= 4.91D-03
 IDIUse=3 WtCom= 9.51D-01 WtEn= 4.86D-02
 Coeff-Com: -0.319D-02 0.400D+00 0.604D+00
 Coeff-En:   0.000D+00 0.353D+00 0.647D+00
 Coeff:     -0.304D-02 0.397D+00 0.606D+00
 Gap=     0.382 Goal=   None    Shift=    0.000
 Gap=     0.224 Goal=   None    Shift=    0.000
 RMSDP=7.36D-04 MaxDP=1.04D-02 DE=-5.75D-04 OVMax= 1.57D-02

 Cycle   4  Pass 0  IDiag  1:
 E= -75.8766478480362     Delta-E=       -0.000559988469 Rises=F Damp=F
 DIIS: error= 1.06D-03 at cycle   4 NSaved=   4.
 NSaved= 4 IEnMin= 4 EnMin= -75.8766478480362     IErMin= 4 ErrMin= 1.06D-03
 ErrMax= 1.06D-03  0.00D+00 EMaxC= 1.00D-01 BMatC= 4.29D-05 BMatP= 2.21D-03
 IDIUse=3 WtCom= 9.89D-01 WtEn= 1.06D-02
 Coeff-Com: -0.170D-01-0.218D-01 0.734D-01 0.965D+00
 Coeff-En:   0.000D+00 0.000D+00 0.000D+00 0.100D+01
 Coeff:     -0.168D-01-0.215D-01 0.726D-01 0.966D+00
 Gap=     0.380 Goal=   None    Shift=    0.000
 Gap=     0.225 Goal=   None    Shift=    0.000
 RMSDP=2.21D-04 MaxDP=2.59D-03 DE=-5.60D-04 OVMax= 4.24D-03

 Cycle   5  Pass 0  IDiag  1:
 E= -75.8766839812997     Delta-E=       -0.000036133263 Rises=F Damp=F
 DIIS: error= 3.15D-04 at cycle   5 NSaved=   5.
 NSaved= 5 IEnMin= 5 EnMin= -75.8766839812997     IErMin= 5 ErrMin= 3.15D-04
 ErrMax= 3.15D-04  0.00D+00 EMaxC= 1.00D-01 BMatC= 8.55D-06 BMatP= 4.29D-05
 IDIUse=3 WtCom= 9.97D-01 WtEn= 3.15D-03
 Coeff-Com:  0.130D-01-0.118D+00-0.256D+00-0.735D+00 0.210D+01
 Coeff-En:   0.000D+00 0.000D+00 0.000D+00 0.000D+00 0.100D+01
 Coeff:      0.129D-01-0.118D+00-0.255D+00-0.733D+00 0.209D+01
 Gap=     0.378 Goal=   None    Shift=    0.000
 Gap=     0.225 Goal=   None    Shift=    0.000
 RMSDP=3.56D-04 MaxDP=3.54D-03 DE=-3.61D-05 OVMax= 5.79D-03

 Cycle   6  Pass 0  IDiag  1:
 E= -75.8767073256320     Delta-E=       -0.000023344332 Rises=F Damp=F
 DIIS: error= 1.25D-04 at cycle   6 NSaved=   6.
 NSaved= 6 IEnMin= 6 EnMin= -75.8767073256320     IErMin= 6 ErrMin= 1.25D-04
 ErrMax= 1.25D-04  0.00D+00 EMaxC= 1.00D-01 BMatC= 7.37D-07 BMatP= 8.55D-06
 IDIUse=3 WtCom= 9.99D-01 WtEn= 1.25D-03
 Coeff-Com:  0.106D-02 0.117D-01-0.331D-03 0.160D-01-0.215D+00 0.119D+01
 Coeff-En:   0.000D+00 0.000D+00 0.000D+00 0.000D+00 0.000D+00 0.100D+01
 Coeff:      0.106D-02 0.117D-01-0.331D-03 0.160D-01-0.215D+00 0.119D+01
 Gap=     0.378 Goal=   None    Shift=    0.000
 Gap=     0.225 Goal=   None    Shift=    0.000
 RMSDP=5.70D-05 MaxDP=6.79D-04 DE=-2.33D-05 OVMax= 1.13D-03

 Cycle   7  Pass 0  IDiag  1:
 E= -75.8767079563192     Delta-E=       -0.000000630687 Rises=F Damp=F
 DIIS: error= 1.52D-05 at cycle   7 NSaved=   7.
 NSaved= 7 IEnMin= 7 EnMin= -75.8767079563192     IErMin= 7 ErrMin= 1.52D-05
 ErrMax= 1.52D-05  0.00D+00 EMaxC= 1.00D-01 BMatC= 1.75D-08 BMatP= 7.37D-07
 IDIUse=1 WtCom= 1.00D+00 WtEn= 0.00D+00
 Coeff-Com: -0.437D-03 0.119D-02 0.747D-02 0.144D-01-0.350D-01-0.737D-01
 Coeff-Com:  0.109D+01
 Coeff:     -0.437D-03 0.119D-02 0.747D-02 0.144D-01-0.350D-01-0.737D-01
 Coeff:      0.109D+01
 Gap=     0.378 Goal=   None    Shift=    0.000
 Gap=     0.225 Goal=   None    Shift=    0.000
 RMSDP=3.56D-06 MaxDP=4.22D-05 DE=-6.31D-07 OVMax= 6.50D-05

 Initial convergence to 1.0D-05 achieved.  Increase integral accuracy.
 Cycle   8  Pass 1  IDiag  1:
 E= -75.8767065172696     Delta-E=        0.000001439050 Rises=F Damp=F
 DIIS: error= 1.32D-06 at cycle   1 NSaved=   1.
 NSaved= 1 IEnMin= 1 EnMin= -75.8767065172696     IErMin= 1 ErrMin= 1.32D-06
 ErrMax= 1.32D-06  0.00D+00 EMaxC= 1.00D-01 BMatC= 1.16D-10 BMatP= 1.16D-10
 IDIUse=1 WtCom= 1.00D+00 WtEn= 0.00D+00
 Coeff-Com:  0.100D+01
 Coeff:      0.100D+01
 Gap=     0.378 Goal=   None    Shift=    0.000
 Gap=     0.225 Goal=   None    Shift=    0.000
 RMSDP=3.56D-06 MaxDP=4.22D-05 DE= 1.44D-06 OVMax= 8.06D-06

 Cycle   9  Pass 1  IDiag  1:
 E= -75.8767065173548     Delta-E=       -0.000000000085 Rises=F Damp=F
 DIIS: error= 8.78D-07 at cycle   2 NSaved=   2.
 NSaved= 2 IEnMin= 2 EnMin= -75.8767065173548     IErMin= 2 ErrMin= 8.78D-07
 ErrMax= 8.78D-07  0.00D+00 EMaxC= 1.00D-01 BMatC= 5.77D-11 BMatP= 1.16D-10
 IDIUse=1 WtCom= 1.00D+00 WtEn= 0.00D+00
 Coeff-Com:  0.302D+00 0.698D+00
 Coeff:      0.302D+00 0.698D+00
 Gap=     0.378 Goal=   None    Shift=    0.000
 Gap=     0.225 Goal=   None    Shift=    0.000
 RMSDP=2.04D-07 MaxDP=3.23D-06 DE=-8.53D-11 OVMax= 4.61D-06

 Cycle  10  Pass 1  IDiag  1:
 E= -75.8767065173632     Delta-E=       -0.000000000008 Rises=F Damp=F
 DIIS: error= 8.10D-07 at cycle   3 NSaved=   3.
 NSaved= 3 IEnMin= 3 EnMin= -75.8767065173632     IErMin= 3 ErrMin= 8.10D-07
 ErrMax= 8.10D-07  0.00D+00 EMaxC= 1.00D-01 BMatC= 5.66D-11 BMatP= 5.77D-11
 IDIUse=1 WtCom= 1.00D+00 WtEn= 0.00D+00
 Coeff-Com: -0.332D+00 0.609D+00 0.723D+00
 Coeff:     -0.332D+00 0.609D+00 0.723D+00
 Gap=     0.378 Goal=   None    Shift=    0.000
 Gap=     0.225 Goal=   None    Shift=    0.000
 RMSDP=1.50D-07 MaxDP=2.44D-06 DE=-8.36D-12 OVMax= 3.37D-06

 Cycle  11  Pass 1  IDiag  1:
 E= -75.8767065173798     Delta-E=       -0.000000000017 Rises=F Damp=F
 DIIS: error= 3.87D-08 at cycle   4 NSaved=   4.
 NSaved= 4 IEnMin= 4 EnMin= -75.8767065173798     IErMin= 4 ErrMin= 3.87D-08
 ErrMax= 3.87D-08  0.00D+00 EMaxC= 1.00D-01 BMatC= 1.31D-13 BMatP= 5.66D-11
 IDIUse=1 WtCom= 1.00D+00 WtEn= 0.00D+00
 Coeff-Com: -0.185D-01-0.539D-02 0.219D-01 0.100D+01
 Coeff:     -0.185D-01-0.539D-02 0.219D-01 0.100D+01
 Gap=     0.378 Goal=   None    Shift=    0.000
 Gap=     0.225 Goal=   None    Shift=    0.000
 RMSDP=1.64D-08 MaxDP=2.57D-07 DE=-1.66D-11 OVMax= 4.13D-07

 Cycle  12  Pass 1  IDiag  1:
 E= -75.8767065173799     Delta-E=       -0.000000000000 Rises=F Damp=F
 DIIS: error= 2.30D-08 at cycle   5 NSaved=   5.
 NSaved= 5 IEnMin= 5 EnMin= -75.8767065173799     IErMin= 5 ErrMin= 2.30D-08
 ErrMax= 2.30D-08  0.00D+00 EMaxC= 1.00D-01 BMatC= 2.60D-14 BMatP= 1.31D-13
 IDIUse=1 WtCom= 1.00D+00 WtEn= 0.00D+00
 Coeff-Com:  0.198D-01-0.314D-01-0.451D-01-0.348D-01 0.109D+01
 Coeff:      0.198D-01-0.314D-01-0.451D-01-0.348D-01 0.109D+01
 Gap=     0.378 Goal=   None    Shift=    0.000
 Gap=     0.225 Goal=   None    Shift=    0.000
 RMSDP=8.14D-09 MaxDP=8.56D-08 DE=-1.56D-13 OVMax= 1.44D-07

 SCF Done:  E(UB3LYP) =  -75.8767065174     A.U. after   12 cycles
            NFock= 12  Conv=0.81D-08     -V/T= 2.0115
 <Sx>= 0.0000 <Sy>= 0.0000 <Sz>= 0.5000 <S**2>= 0.7660 S= 0.5080
 <L.S>= 0.000000000000E+00
 KE= 7.501272161310D+01 PE=-1.884911213372D+02 EE= 3.124165008312D+01
 Annihilation of the first spin contaminant:
 S**2 before annihilation     0.7660,   after     0.7502
 Leave Link  502 at Tue Jun  8 12:07:38 2021, MaxMem=   134217728 cpu:               2.6 elap:               0.2
 (Enter /APL/ISV/x86_64/gaussian/16/C.01/g16/l701.exe)
 ... and contract with generalized density number  0.
 Compute integral first derivatives.
 Leave Link  701 at Tue Jun  8 12:07:38 2021, MaxMem=   134217728 cpu:               1.4 elap:               0.1
 (Enter /APL/ISV/x86_64/gaussian/16/C.01/g16/l702.exe)
 L702 exits ... SP integral derivatives will be done elsewhere.
 Leave Link  702 at Tue Jun  8 12:07:38 2021, MaxMem=   134217728 cpu:               0.5 elap:               0.1
 (Enter /APL/ISV/x86_64/gaussian/16/C.01/g16/l703.exe)
 Integral derivatives from FoFJK, PRISM(SPDF).
 Compute integral first derivatives, UseDBF=F ICtDFT=           0.
 Calling FoFJK, ICntrl=      2127 FMM=F ISym2X=1 I1Cent= 0 IOpClX= 1 NMat=1 NMatS=1 NMatT=0.
 FoFJK:  IHMeth= 1 ICntrl=    2127 DoSepK=F KAlg= 0 I1Cent=           0 FoldK=F
 IRaf=         0 NMat=       1 IRICut=       1 DoRegI=T DoRafI=F ISym2E= 1 IDoP0=0 IntGTp=1.
 FoFCou: FMM=F IPFlag=           0 FMFlag=      100000 FMFlg1=         800
         NFxFlg=           0 DoJE=F BraDBF=F KetDBF=F FulRan=T
         wScrn=  0.000000 ICntrl=      2127 IOpCl=  1 I1Cent=           0 NGrid=           0
         NMat0=    1 NMatS0=      1 NMatT0=    0 NMatD0=    1 NMtDS0=    0 NMtDT0=    0
 Petite list used in FoFCou.
 Leave Link  703 at Tue Jun  8 12:07:39 2021, MaxMem=   134217728 cpu:               1.9 elap:               0.1
 (Enter /APL/ISV/x86_64/gaussian/16/C.01/g16/l716.exe)
 Dipole        =-1.08702511D-16 0.00000000D+00-1.39103159D+00
 ***** Axes restored to original set *****
 -------------------------------------------------------------------
 Center     Atomic                   Forces (Hartrees/Bohr)
 Number     Number              X              Y              Z
 -------------------------------------------------------------------
      1        8           0.095128448    0.095128448    0.000000000
      2        1          -0.089372821   -0.005755627   -0.000000000
      3        1          -0.005755627   -0.089372821   -0.000000000
 -------------------------------------------------------------------
 Cartesian Forces:  Max     0.095128448 RMS     0.061590133
 Leave Link  716 at Tue Jun  8 12:07:39 2021, MaxMem=   134217728 cpu:               0.4 elap:               0.0
 (Enter /APL/ISV/x86_64/gaussian/16/C.01/g16/l103.exe)

 GradGradGradGradGradGradGradGradGradGradGradGradGradGradGradGradGradGrad
 Berny optimization.
 Using GEDIIS/GDIIS optimizer.
 FormGI is forming the generalized inverse of G from B-inverse, IUseBI=4.
 Internal  Forces:  Max     0.089230346 RMS     0.073773516
 Search for a local minimum.
 Step number   2 out of a maximum of   20
 All quantities printed in internal units (Hartrees-Bohrs-Radians)
 RMS Force = .73774D-01 SwitMx=.10000D-02 MixMth= 1
 Mixed Optimization -- RFO/linear search
 Update second derivatives using D2CorX and points    1    2
 DE= -3.78D-02 DEPred=-3.18D-02 R= 1.19D+00
 TightC=F SS=  1.41D+00  RLast= 3.00D-01 DXNew= 5.0454D-01 9.0000D-01
 Trust test= 1.19D+00 RLast= 3.00D-01 DXMaxT set to 5.05D-01
 The second derivative matrix:
                          R1        R2        A1
           R1           0.04960
           R2          -0.06373   0.04960
           A1           0.01203   0.01203   0.15392
 ITU=  1  0
 Use linear search instead of GDIIS.
     Eigenvalues ---   -0.01583   0.11333   0.15562
 Eigenvalue     1 is  -1.58D-02 should be greater than     0.000000 Eigenvector:
                          R2        R1        A1
   1                    0.70358   0.70358  -0.09973
 RFO step:  Lambda=-1.35815811D-01 EMin=-1.58345045D-02
 Skip linear search -- no minimum in search direction.
 Maximum step size (   0.505) exceeded in Quadratic search.
    -- Step size scaled by   0.504
 Iteration  1 RMS(Cart)=  0.11741160 RMS(Int)=  0.12689998
 Iteration  2 RMS(Cart)=  0.10848904 RMS(Int)=  0.00020453
 Iteration  3 RMS(Cart)=  0.00025794 RMS(Int)=  0.00000003
 Iteration  4 RMS(Cart)=  0.00000002 RMS(Int)=  0.00000000
 ITry= 1 IFail=0 DXMaxC= 2.16D-01 DCOld= 1.00D+10 DXMaxT= 5.05D-01 DXLimC= 3.00D+00 Rises=F
 ClnCor:  largest displacement from symmetrization is 3.78D-14 for atom     3.
 Variable       Old X    -DE/DX   Delta X   Delta X   Delta X     New X
                                 (Linear)    (Quad)   (Total)
    R1        2.62460  -0.08923   0.00000  -0.35397  -0.35397   2.27063
    R2        2.62460  -0.08923   0.00000  -0.35397  -0.35397   2.27063
    A1        1.61330   0.02009   0.00000   0.06305   0.06305   1.67634
         Item               Value     Threshold  Converged?
 Maximum Force            0.089230     0.000450     NO 
 RMS     Force            0.073774     0.000300     NO 
 Maximum Displacement     0.216355     0.001800     NO 
 RMS     Displacement     0.219488     0.001200     NO 
 Predicted change in Energy=-6.643673D-02
 Lowest energy point so far.  Saving SCF results.
 GradGradGradGradGradGradGradGradGradGradGradGradGradGradGradGradGradGrad

 Leave Link  103 at Tue Jun  8 12:07:39 2021, MaxMem=   134217728 cpu:               0.2 elap:               0.0
 (Enter /APL/ISV/x86_64/gaussian/16/C.01/g16/l202.exe)
                          Input orientation:                          
 ---------------------------------------------------------------------
 Center     Atomic      Atomic             Coordinates (Angstroms)
 Number     Number       Type             X           Y           Z
 ---------------------------------------------------------------------
      1          8           0        0.121163    0.121163    0.000000
      2          1           0        1.321056    0.057782   -0.000000
      3          1           0        0.057782    1.321056    0.000000
 ---------------------------------------------------------------------
                    Distance matrix (angstroms):
                    1          2          3
     1  O    0.000000
     2  H    1.201566   0.000000
     3  H    1.201566   1.786539   0.000000
 Stoichiometry    H2O(1+,2)
 Framework group  C2V[C2(O),SGV(H2)]
 Deg. of freedom     2
 Full point group                 C2V     NOp   4
 RotChk:  IX=0 Diff= 4.19D-16
 Largest Abelian subgroup         C2V     NOp   4
 Largest concise Abelian subgroup C2      NOp   2
                         Standard orientation:                         
 ---------------------------------------------------------------------
 Center     Atomic      Atomic             Coordinates (Angstroms)
 Number     Number       Type             X           Y           Z
 ---------------------------------------------------------------------
      1          8           0       -0.000000    0.000000    0.160727
      2          1           0       -0.000000    0.893270   -0.642909
      3          1           0       -0.000000   -0.893270   -0.642909
 ---------------------------------------------------------------------
 Rotational constants (GHZ):         437.1485468         314.2222216         182.8149208
 Leave Link  202 at Tue Jun  8 12:07:39 2021, MaxMem=   134217728 cpu:               0.2 elap:               0.0
 (Enter /APL/ISV/x86_64/gaussian/16/C.01/g16/l301.exe)
 Standard basis: CC-pVDZ (5D, 7F)
 Ernie: Thresh=  0.10000D-02 Tol=  0.10000D-05 Strict=F.
 Ernie:  2 primitive shells out of 32 were deleted.
 There are    12 symmetry adapted cartesian basis functions of A1  symmetry.
 There are     2 symmetry adapted cartesian basis functions of A2  symmetry.
 There are     4 symmetry adapted cartesian basis functions of B1  symmetry.
 There are     7 symmetry adapted cartesian basis functions of B2  symmetry.
 There are    11 symmetry adapted basis functions of A1  symmetry.
 There are     2 symmetry adapted basis functions of A2  symmetry.
 There are     4 symmetry adapted basis functions of B1  symmetry.
 There are     7 symmetry adapted basis functions of B2  symmetry.
    24 basis functions,    47 primitive gaussians,    25 cartesian basis functions
     5 alpha electrons        4 beta electrons
       nuclear repulsion energy         7.3427024972 Hartrees.
 IExCor=  402 DFT=T Ex+Corr=B3LYP ExCW=0 ScaHFX=  0.200000
 ScaDFX=  0.800000  0.720000  1.000000  0.810000 ScalE2=  1.000000  1.000000
 IRadAn=      5 IRanWt=     -1 IRanGd=            0 ICorTp=0 IEmpDi=  4
 NAtoms=    3 NActive=    3 NUniq=    2 SFac= 2.25D+00 NAtFMM=   60 NAOKFM=F Big=F
 Integral buffers will be    131072 words long.
 Raffenetti 2 integral format.
 Two-electron integral symmetry is turned on.
 Leave Link  301 at Tue Jun  8 12:07:39 2021, MaxMem=   134217728 cpu:               0.9 elap:               0.1
 (Enter /APL/ISV/x86_64/gaussian/16/C.01/g16/l302.exe)
 NPDir=0 NMtPBC=     1 NCelOv=     1 NCel=       1 NClECP=     1 NCelD=      1
         NCelK=      1 NCelE2=     1 NClLst=     1 CellRange=     0.0.
 One-electron integrals computed using PRISM.
 One-electron integral symmetry used in STVInt
 NBasis=    24 RedAO= T EigKep=  5.65D-02  NBF=    11     2     4     7
 NBsUse=    24 1.00D-06 EigRej= -1.00D+00 NBFU=    11     2     4     7
 Precomputing XC quadrature grid using
 IXCGrd= 4 IRadAn=           5 IRanWt=          -1 IRanGd=           0 AccXCQ= 0.00D+00.
 Generated NRdTot=       0 NPtTot=           0 NUsed=           0 NTot=          32
 NSgBfM=    25    25    25    25    25 MxSgAt=     3 MxSgA2=     3.
 Leave Link  302 at Tue Jun  8 12:07:39 2021, MaxMem=   134217728 cpu:               1.7 elap:               0.1
 (Enter /APL/ISV/x86_64/gaussian/16/C.01/g16/l303.exe)
 DipDrv:  MaxL=1.
 Leave Link  303 at Tue Jun  8 12:07:39 2021, MaxMem=   134217728 cpu:               0.4 elap:               0.0
 (Enter /APL/ISV/x86_64/gaussian/16/C.01/g16/l401.exe)
 Initial guess from the checkpoint file:  "water_cation.chk"
 B after Tr=     0.000000    0.000000    0.000000
         Rot=    1.000000   -0.000000   -0.000000   -0.000000 Ang=   0.00 deg.
 Guess basis will be translated and rotated to current coordinates.
 JPrj=2 DoOrth=T DoCkMO=T.
 Initial guess orbital symmetries:
 Alpha Orbitals:
       Occupied  (A1) (A1) (B2) (B1) (A1)
       Virtual   (A1) (B2) (A1) (B2) (B1) (A1) (B2) (A1) (A2) (A1)
                 (B1) (B2) (B2) (A1) (A2) (B1) (A1) (A1) (B2)
 Beta  Orbitals:
       Occupied  (A1) (A1) (B2) (A1)
       Virtual   (B1) (A1) (B2) (A1) (B2) (B1) (A1) (B2) (A1) (A2)
                 (A1) (B1) (B2) (B2) (A1) (A2) (B1) (A1) (A1) (B2)
 The electronic state of the initial guess is 2-B1.
 Initial guess <Sx>= 0.0000 <Sy>= 0.0000 <Sz>= 0.5000 <S**2>= 0.7632 S= 0.5066
 Generating alternative initial guess.
 ExpMin= 1.22D-01 ExpMax= 1.17D+04 ExpMxC= 4.01D+02 IAcc=3 IRadAn=         5 AccDes= 0.00D+00
 Harris functional with IExCor=  402 and IRadAn=       5 diagonalized for initial guess.
 HarFok:  IExCor=  402 AccDes= 0.00D+00 IRadAn=         5 IDoV= 1 UseB2=F ITyADJ=14
 ICtDFT=  3500011 ScaDFX=  1.000000  1.000000  1.000000  1.000000
 FoFCou: FMM=F IPFlag=           0 FMFlag=      100000 FMFlg1=           0
         NFxFlg=           0 DoJE=T BraDBF=F KetDBF=T FulRan=T
         wScrn=  0.000000 ICntrl=       500 IOpCl=  0 I1Cent=   200000004 NGrid=           0
         NMat0=    1 NMatS0=      1 NMatT0=    0 NMatD0=    1 NMtDS0=    0 NMtDT0=    0
 Petite list used in FoFCou.
 Harris En= -76.0467668841741    
 Leave Link  401 at Tue Jun  8 12:07:39 2021, MaxMem=   134217728 cpu:               2.7 elap:               0.2
 (Enter /APL/ISV/x86_64/gaussian/16/C.01/g16/l502.exe)
 Keep R1 and R2 ints in memory in symmetry-blocked form, NReq=13860511.
 FoFCou: FMM=F IPFlag=           0 FMFlag=           0 FMFlg1=           0
         NFxFlg=           0 DoJE=F BraDBF=F KetDBF=F FulRan=T
         wScrn=  0.000000 ICntrl=       600 IOpCl=  0 I1Cent=           0 NGrid=           0
         NMat0=    1 NMatS0=    300 NMatT0=    0 NMatD0=    1 NMtDS0=    0 NMtDT0=    0
 Petite list used in FoFCou.
 UHF open shell SCF:
 Using DIIS extrapolation, IDIIS=  1040.
 NGot=   134217728 LenX=   134189263 LenY=   134188197
 Requested convergence on RMS density matrix=1.00D-08 within 128 cycles.
 Requested convergence on MAX density matrix=1.00D-06.
 Requested convergence on             energy=1.00D-06.
 No special actions if energy rises.
 Integral accuracy reduced to 1.0D-05 until final iterations.

 Cycle   1  Pass 0  IDiag  1:
 E= -75.9291311875782    
 DIIS: error= 2.05D-02 at cycle   1 NSaved=   1.
 NSaved= 1 IEnMin= 1 EnMin= -75.9291311875782     IErMin= 1 ErrMin= 2.05D-02
 ErrMax= 2.05D-02  0.00D+00 EMaxC= 1.00D-01 BMatC= 2.89D-02 BMatP= 2.89D-02
 IDIUse=3 WtCom= 7.95D-01 WtEn= 2.05D-01
 Coeff-Com:  0.100D+01
 Coeff-En:   0.100D+01
 Coeff:      0.100D+01
 Recover alternate guess density for next cycle.
 RMSDP=5.69D-03 MaxDP=6.35D-02              OVMax= 0.00D+00

 Cycle   2  Pass 0  IDiag  1:
 E= -75.9220444204918     Delta-E=        0.007086767086 Rises=F Damp=F
 Switch densities from cycles 1 and 2 for lowest energy.
 DIIS: error= 3.04D-02 at cycle   2 NSaved=   2.
 NSaved= 2 IEnMin= 1 EnMin= -75.9291311875782     IErMin= 1 ErrMin= 2.05D-02
 ErrMax= 3.04D-02  0.00D+00 EMaxC= 1.00D+00 BMatC= 7.35D-02 BMatP= 2.89D-02
 IDIUse=1 WtCom= 1.00D+00 WtEn= 0.00D+00
 Coeff-Com:  0.884D+00 0.116D+00
 Coeff:      0.884D+00 0.116D+00
 Gap=     0.538 Goal=   None    Shift=    0.000
 Gap=     0.233 Goal=   None    Shift=    0.000
 RMSDP=5.02D-03 MaxDP=4.53D-02 DE= 7.09D-03 OVMax= 6.39D-02

 Cycle   3  Pass 0  IDiag  1:
 E= -75.9357594422625     Delta-E=       -0.013715021771 Rises=F Damp=F
 DIIS: error= 1.10D-02 at cycle   3 NSaved=   3.
 NSaved= 3 IEnMin= 3 EnMin= -75.9357594422625     IErMin= 3 ErrMin= 1.10D-02
 ErrMax= 1.10D-02  0.00D+00 EMaxC= 1.00D+00 BMatC= 1.20D-02 BMatP= 2.89D-02
 IDIUse=1 WtCom= 1.00D+00 WtEn= 0.00D+00
 Coeff-Com:  0.952D-01 0.215D+00 0.690D+00
 Coeff:      0.952D-01 0.215D+00 0.690D+00
 Gap=     0.456 Goal=   None    Shift=    0.000
 Gap=     0.230 Goal=   None    Shift=    0.000
 RMSDP=1.90D-03 MaxDP=2.48D-02 DE=-1.37D-02 OVMax= 3.00D-02

 Cycle   4  Pass 0  IDiag  1:
 E= -75.9376168127719     Delta-E=       -0.001857370509 Rises=F Damp=F
 DIIS: error= 4.93D-03 at cycle   4 NSaved=   4.
 NSaved= 4 IEnMin= 4 EnMin= -75.9376168127719     IErMin= 4 ErrMin= 4.93D-03
 ErrMax= 4.93D-03  0.00D+00 EMaxC= 1.00D+00 BMatC= 2.49D-03 BMatP= 1.20D-02
 IDIUse=1 WtCom= 1.00D+00 WtEn= 0.00D+00
 Coeff-Com:  0.115D-02 0.446D-01 0.344D+00 0.611D+00
 Coeff:      0.115D-02 0.446D-01 0.344D+00 0.611D+00
 Gap=     0.465 Goal=   None    Shift=    0.000
 Gap=     0.230 Goal=   None    Shift=    0.000
 RMSDP=6.94D-04 MaxDP=7.34D-03 DE=-1.86D-03 OVMax= 9.34D-03

 Cycle   5  Pass 0  IDiag  1:
 E= -75.9381485444721     Delta-E=       -0.000531731700 Rises=F Damp=F
 DIIS: error= 5.48D-04 at cycle   5 NSaved=   5.
 NSaved= 5 IEnMin= 5 EnMin= -75.9381485444721     IErMin= 5 ErrMin= 5.48D-04
 ErrMax= 5.48D-04  0.00D+00 EMaxC= 1.00D+00 BMatC= 1.52D-05 BMatP= 2.49D-03
 IDIUse=1 WtCom= 1.00D+00 WtEn= 0.00D+00
 Coeff-Com: -0.591D-03-0.591D-02 0.287D-04 0.798D-01 0.927D+00
 Coeff:     -0.591D-03-0.591D-02 0.287D-04 0.798D-01 0.927D+00
 Gap=     0.464 Goal=   None    Shift=    0.000
 Gap=     0.231 Goal=   None    Shift=    0.000
 RMSDP=5.43D-05 MaxDP=6.21D-04 DE=-5.32D-04 OVMax= 9.61D-04

 Cycle   6  Pass 0  IDiag  1:
 E= -75.9381520606945     Delta-E=       -0.000003516222 Rises=F Damp=F
 DIIS: error= 5.60D-05 at cycle   6 NSaved=   6.
 NSaved= 6 IEnMin= 6 EnMin= -75.9381520606945     IErMin= 6 ErrMin= 5.60D-05
 ErrMax= 5.60D-05  0.00D+00 EMaxC= 1.00D+00 BMatC= 1.69D-07 BMatP= 1.52D-05
 IDIUse=1 WtCom= 1.00D+00 WtEn= 0.00D+00
 Coeff-Com: -0.298D-03 0.321D-03-0.424D-02-0.134D-01-0.116D+00 0.113D+01
 Coeff:     -0.298D-03 0.321D-03-0.424D-02-0.134D-01-0.116D+00 0.113D+01
 Gap=     0.464 Goal=   None    Shift=    0.000
 Gap=     0.231 Goal=   None    Shift=    0.000
 RMSDP=1.79D-05 MaxDP=1.76D-04 DE=-3.52D-06 OVMax= 2.92D-04

 Cycle   7  Pass 0  IDiag  1:
 E= -75.9381522347013     Delta-E=       -0.000000174007 Rises=F Damp=F
 DIIS: error= 2.02D-05 at cycle   7 NSaved=   7.
 NSaved= 7 IEnMin= 7 EnMin= -75.9381522347013     IErMin= 7 ErrMin= 2.02D-05
 ErrMax= 2.02D-05  0.00D+00 EMaxC= 1.00D+00 BMatC= 2.82D-08 BMatP= 1.69D-07
 IDIUse=1 WtCom= 1.00D+00 WtEn= 0.00D+00
 Coeff-Com:  0.748D-04 0.293D-03 0.238D-02 0.157D-02 0.151D-01-0.694D+00
 Coeff-Com:  0.167D+01
 Coeff:      0.748D-04 0.293D-03 0.238D-02 0.157D-02 0.151D-01-0.694D+00
 Coeff:      0.167D+01
 Gap=     0.464 Goal=   None    Shift=    0.000
 Gap=     0.231 Goal=   None    Shift=    0.000
 RMSDP=1.17D-05 MaxDP=1.26D-04 DE=-1.74D-07 OVMax= 1.86D-04

 Cycle   8  Pass 0  IDiag  1:
 E= -75.9381522741972     Delta-E=       -0.000000039496 Rises=F Damp=F
 DIIS: error= 4.79D-06 at cycle   8 NSaved=   8.
 NSaved= 8 IEnMin= 8 EnMin= -75.9381522741972     IErMin= 8 ErrMin= 4.79D-06
 ErrMax= 4.79D-06  0.00D+00 EMaxC= 1.00D+00 BMatC= 1.24D-09 BMatP= 2.82D-08
 IDIUse=1 WtCom= 1.00D+00 WtEn= 0.00D+00
 Coeff-Com: -0.265D-04-0.644D-04-0.227D-03 0.114D-02 0.705D-02 0.460D-01
 Coeff-Com: -0.285D+00 0.123D+01
 Coeff:     -0.265D-04-0.644D-04-0.227D-03 0.114D-02 0.705D-02 0.460D-01
 Coeff:     -0.285D+00 0.123D+01
 Gap=     0.464 Goal=   None    Shift=    0.000
 Gap=     0.231 Goal=   None    Shift=    0.000
 RMSDP=1.69D-06 MaxDP=2.07D-05 DE=-3.95D-08 OVMax= 2.79D-05

 Initial convergence to 1.0D-05 achieved.  Increase integral accuracy.
 Cycle   9  Pass 1  IDiag  1:
 E= -75.9381511888316     Delta-E=        0.000001085366 Rises=F Damp=F
 DIIS: error= 5.45D-07 at cycle   1 NSaved=   1.
 NSaved= 1 IEnMin= 1 EnMin= -75.9381511888316     IErMin= 1 ErrMin= 5.45D-07
 ErrMax= 5.45D-07  0.00D+00 EMaxC= 1.00D+00 BMatC= 1.76D-11 BMatP= 1.76D-11
 IDIUse=1 WtCom= 1.00D+00 WtEn= 0.00D+00
 Coeff-Com:  0.100D+01
 Coeff:      0.100D+01
 Gap=     0.464 Goal=   None    Shift=    0.000
 Gap=     0.231 Goal=   None    Shift=    0.000
 RMSDP=1.69D-06 MaxDP=2.07D-05 DE= 1.09D-06 OVMax= 1.65D-06

 Cycle  10  Pass 1  IDiag  1:
 E= -75.9381511888367     Delta-E=       -0.000000000005 Rises=F Damp=F
 DIIS: error= 2.76D-07 at cycle   2 NSaved=   2.
 NSaved= 2 IEnMin= 2 EnMin= -75.9381511888367     IErMin= 2 ErrMin= 2.76D-07
 ErrMax= 2.76D-07  0.00D+00 EMaxC= 1.00D+00 BMatC= 5.13D-12 BMatP= 1.76D-11
 IDIUse=1 WtCom= 1.00D+00 WtEn= 0.00D+00
 Coeff-Com:  0.245D+00 0.755D+00
 Coeff:      0.245D+00 0.755D+00
 Gap=     0.464 Goal=   None    Shift=    0.000
 Gap=     0.231 Goal=   None    Shift=    0.000
 RMSDP=5.18D-08 MaxDP=6.68D-07 DE=-5.12D-12 OVMax= 8.05D-07

 Cycle  11  Pass 1  IDiag  1:
 E= -75.9381511888373     Delta-E=       -0.000000000001 Rises=F Damp=F
 DIIS: error= 2.05D-07 at cycle   3 NSaved=   3.
 NSaved= 3 IEnMin= 3 EnMin= -75.9381511888373     IErMin= 3 ErrMin= 2.05D-07
 ErrMax= 2.05D-07  0.00D+00 EMaxC= 1.00D+00 BMatC= 3.81D-12 BMatP= 5.13D-12
 IDIUse=1 WtCom= 1.00D+00 WtEn= 0.00D+00
 Coeff-Com: -0.865D-01 0.479D+00 0.607D+00
 Coeff:     -0.865D-01 0.479D+00 0.607D+00
 Gap=     0.464 Goal=   None    Shift=    0.000
 Gap=     0.231 Goal=   None    Shift=    0.000
 RMSDP=2.58D-08 MaxDP=3.67D-07 DE=-5.26D-13 OVMax= 4.54D-07

 Cycle  12  Pass 1  IDiag  1:
 E= -75.9381511888381     Delta-E=       -0.000000000001 Rises=F Damp=F
 DIIS: error= 1.27D-08 at cycle   4 NSaved=   4.
 NSaved= 4 IEnMin= 4 EnMin= -75.9381511888381     IErMin= 4 ErrMin= 1.27D-08
 ErrMax= 1.27D-08  0.00D+00 EMaxC= 1.00D+00 BMatC= 9.19D-15 BMatP= 3.81D-12
 IDIUse=1 WtCom= 1.00D+00 WtEn= 0.00D+00
 Coeff-Com: -0.235D-02-0.595D-01-0.517D-01 0.111D+01
 Coeff:     -0.235D-02-0.595D-01-0.517D-01 0.111D+01
 Gap=     0.464 Goal=   None    Shift=    0.000
 Gap=     0.231 Goal=   None    Shift=    0.000
 RMSDP=3.21D-09 MaxDP=3.85D-08 DE=-7.96D-13 OVMax= 5.21D-08

 SCF Done:  E(UB3LYP) =  -75.9381511888     A.U. after   12 cycles
            NFock= 12  Conv=0.32D-08     -V/T= 2.0100
 <Sx>= 0.0000 <Sy>= 0.0000 <Sz>= 0.5000 <S**2>= 0.7551 S= 0.5025
 <L.S>= 0.000000000000E+00
 KE= 7.518797473111D+01 PE=-1.903061873722D+02 EE= 3.183735895508D+01
 Annihilation of the first spin contaminant:
 S**2 before annihilation     0.7551,   after     0.7500
 Leave Link  502 at Tue Jun  8 12:07:39 2021, MaxMem=   134217728 cpu:               2.5 elap:               0.2
 (Enter /APL/ISV/x86_64/gaussian/16/C.01/g16/l701.exe)
 ... and contract with generalized density number  0.
 Compute integral first derivatives.
 Leave Link  701 at Tue Jun  8 12:07:40 2021, MaxMem=   134217728 cpu:               1.5 elap:               0.1
 (Enter /APL/ISV/x86_64/gaussian/16/C.01/g16/l702.exe)
 L702 exits ... SP integral derivatives will be done elsewhere.
 Leave Link  702 at Tue Jun  8 12:07:40 2021, MaxMem=   134217728 cpu:               0.4 elap:               0.0
 (Enter /APL/ISV/x86_64/gaussian/16/C.01/g16/l703.exe)
 Integral derivatives from FoFJK, PRISM(SPDF).
 Compute integral first derivatives, UseDBF=F ICtDFT=           0.
 Calling FoFJK, ICntrl=      2127 FMM=F ISym2X=1 I1Cent= 0 IOpClX= 1 NMat=1 NMatS=1 NMatT=0.
 FoFJK:  IHMeth= 1 ICntrl=    2127 DoSepK=F KAlg= 0 I1Cent=           0 FoldK=F
 IRaf=         0 NMat=       1 IRICut=       1 DoRegI=T DoRafI=F ISym2E= 1 IDoP0=0 IntGTp=1.
 FoFCou: FMM=F IPFlag=           0 FMFlag=      100000 FMFlg1=         800
         NFxFlg=           0 DoJE=F BraDBF=F KetDBF=F FulRan=T
         wScrn=  0.000000 ICntrl=      2127 IOpCl=  1 I1Cent=           0 NGrid=           0
         NMat0=    1 NMatS0=      1 NMatT0=    0 NMatD0=    1 NMtDS0=    0 NMtDT0=    0
 Petite list used in FoFCou.
 Leave Link  703 at Tue Jun  8 12:07:40 2021, MaxMem=   134217728 cpu:               2.1 elap:               0.2
 (Enter /APL/ISV/x86_64/gaussian/16/C.01/g16/l716.exe)
 Dipole        =-8.63220742D-17 0.00000000D+00-1.15736218D+00
 ***** Axes restored to original set *****
 -------------------------------------------------------------------
 Center     Atomic                   Forces (Hartrees/Bohr)
 Number     Number              X              Y              Z
 -------------------------------------------------------------------
      1        8           0.079895927    0.079895927    0.000000000
      2        1          -0.075584482   -0.004311445   -0.000000000
      3        1          -0.004311445   -0.075584482   -0.000000000
 -------------------------------------------------------------------
 Cartesian Forces:  Max     0.079895927 RMS     0.051886546
 Leave Link  716 at Tue Jun  8 12:07:40 2021, MaxMem=   134217728 cpu:               0.4 elap:               0.0
 (Enter /APL/ISV/x86_64/gaussian/16/C.01/g16/l103.exe)

 GradGradGradGradGradGradGradGradGradGradGradGradGradGradGradGradGradGrad
 Berny optimization.
 Using GEDIIS/GDIIS optimizer.
 FormGI is forming the generalized inverse of G from B-inverse, IUseBI=4.
 Internal  Forces:  Max     0.075251833 RMS     0.062397137
 Search for a local minimum.
 Step number   3 out of a maximum of   20
 All quantities printed in internal units (Hartrees-Bohrs-Radians)
 RMS Force = .62397D-01 SwitMx=.10000D-02 MixMth= 1
 Mixed Optimization -- RFO/linear search
 Update second derivatives using D2CorX and points    2    3
 DE= -6.14D-02 DEPred=-6.64D-02 R= 9.25D-01
 TightC=F SS=  1.41D+00  RLast= 5.05D-01 DXNew= 8.4853D-01 1.5136D+00
 Trust test= 9.25D-01 RLast= 5.05D-01 DXMaxT set to 8.49D-01
 The second derivative matrix:
                          R1        R2        A1
           R1           0.07748
           R2          -0.03585   0.07748
           A1           0.01198   0.01198   0.15443
 ITU=  1  1  0
 Use linear search instead of GDIIS.
     Eigenvalues ---    0.03914   0.11333   0.15692
 RFO step:  Lambda=-2.82566358D-04 EMin= 3.91362159D-02
 Quartic linear search produced a step of  1.04526.
 Iteration  1 RMS(Cart)=  0.11921045 RMS(Int)=  0.14032819
 Iteration  2 RMS(Cart)=  0.12410783 RMS(Int)=  0.00053838
 Iteration  3 RMS(Cart)=  0.00054848 RMS(Int)=  0.00000017
 Iteration  4 RMS(Cart)=  0.00000015 RMS(Int)=  0.00000000
 ITry= 1 IFail=0 DXMaxC= 2.23D-01 DCOld= 1.00D+10 DXMaxT= 8.49D-01 DXLimC= 3.00D+00 Rises=F
 ClnCor:  largest displacement from symmetrization is 3.66D-14 for atom     3.
 Variable       Old X    -DE/DX   Delta X   Delta X   Delta X     New X
                                 (Linear)    (Quad)   (Total)
    R1        2.27063  -0.07525  -0.36998   0.00192  -0.36806   1.90257
    R2        2.27063  -0.07525  -0.36998   0.00192  -0.36806   1.90257
    A1        1.67634   0.01883   0.06590   0.04242   0.10832   1.78466
         Item               Value     Threshold  Converged?
 Maximum Force            0.075252     0.000450     NO 
 RMS     Force            0.062397     0.000300     NO 
 Maximum Displacement     0.222751     0.001800     NO 
 RMS     Displacement     0.227882     0.001200     NO 
 Predicted change in Energy=-5.184442D-02
 Lowest energy point so far.  Saving SCF results.
 GradGradGradGradGradGradGradGradGradGradGradGradGradGradGradGradGradGrad

 Leave Link  103 at Tue Jun  8 12:07:40 2021, MaxMem=   134217728 cpu:               0.1 elap:               0.0
 (Enter /APL/ISV/x86_64/gaussian/16/C.01/g16/l202.exe)
                          Input orientation:                          
 ---------------------------------------------------------------------
 Center     Atomic      Atomic             Coordinates (Angstroms)
 Number     Number       Type             X           Y           Z
 ---------------------------------------------------------------------
      1          8           0        0.202136    0.202136    0.000000
      2          1           0        1.203181    0.094683   -0.000000
      3          1           0        0.094683    1.203181    0.000000
 ---------------------------------------------------------------------
                    Distance matrix (angstroms):
                    1          2          3
     1  O    0.000000
     2  H    1.006796   0.000000
     3  H    1.006796   1.567653   0.000000
 Stoichiometry    H2O(1+,2)
 Framework group  C2V[C2(O),SGV(H2)]
 Deg. of freedom     2
 Full point group                 C2V     NOp   4
 RotChk:  IX=0 Diff= 2.68D-16
 Largest Abelian subgroup         C2V     NOp   4
 Largest concise Abelian subgroup C2      NOp   2
                         Standard orientation:                         
 ---------------------------------------------------------------------
 Center     Atomic      Atomic             Coordinates (Angstroms)
 Number     Number       Type             X           Y           Z
 ---------------------------------------------------------------------
      1          8           0       -0.000000   -0.000000    0.126373
      2          1           0       -0.000000    0.783826   -0.505492
      3          1           0       -0.000000   -0.783826   -0.505492
 ---------------------------------------------------------------------
 Rotational constants (GHZ):         707.1285516         408.0960814         258.7607756
 Leave Link  202 at Tue Jun  8 12:07:40 2021, MaxMem=   134217728 cpu:               0.2 elap:               0.0
 (Enter /APL/ISV/x86_64/gaussian/16/C.01/g16/l301.exe)
 Standard basis: CC-pVDZ (5D, 7F)
 Ernie: Thresh=  0.10000D-02 Tol=  0.10000D-05 Strict=F.
 Ernie:  2 primitive shells out of 32 were deleted.
 There are    12 symmetry adapted cartesian basis functions of A1  symmetry.
 There are     2 symmetry adapted cartesian basis functions of A2  symmetry.
 There are     4 symmetry adapted cartesian basis functions of B1  symmetry.
 There are     7 symmetry adapted cartesian basis functions of B2  symmetry.
 There are    11 symmetry adapted basis functions of A1  symmetry.
 There are     2 symmetry adapted basis functions of A2  symmetry.
 There are     4 symmetry adapted basis functions of B1  symmetry.
 There are     7 symmetry adapted basis functions of B2  symmetry.
    24 basis functions,    47 primitive gaussians,    25 cartesian basis functions
     5 alpha electrons        4 beta electrons
       nuclear repulsion energy         8.7472464387 Hartrees.
 IExCor=  402 DFT=T Ex+Corr=B3LYP ExCW=0 ScaHFX=  0.200000
 ScaDFX=  0.800000  0.720000  1.000000  0.810000 ScalE2=  1.000000  1.000000
 IRadAn=      5 IRanWt=     -1 IRanGd=            0 ICorTp=0 IEmpDi=  4
 NAtoms=    3 NActive=    3 NUniq=    2 SFac= 2.25D+00 NAtFMM=   60 NAOKFM=F Big=F
 Integral buffers will be    131072 words long.
 Raffenetti 2 integral format.
 Two-electron integral symmetry is turned on.
 Leave Link  301 at Tue Jun  8 12:07:40 2021, MaxMem=   134217728 cpu:               0.9 elap:               0.1
 (Enter /APL/ISV/x86_64/gaussian/16/C.01/g16/l302.exe)
 NPDir=0 NMtPBC=     1 NCelOv=     1 NCel=       1 NClECP=     1 NCelD=      1
         NCelK=      1 NCelE2=     1 NClLst=     1 CellRange=     0.0.
 One-electron integrals computed using PRISM.
 One-electron integral symmetry used in STVInt
 NBasis=    24 RedAO= T EigKep=  3.80D-02  NBF=    11     2     4     7
 NBsUse=    24 1.00D-06 EigRej= -1.00D+00 NBFU=    11     2     4     7
 Precomputing XC quadrature grid using
[...]
 RMSDP=3.69D-05 MaxDP=3.07D-04              OVMax= 2.80D-04

 Cycle   2  Pass 1  IDiag  1:
 E= -75.9729622943282     Delta-E=       -0.000000394345 Rises=F Damp=F
 DIIS: error= 3.10D-05 at cycle   2 NSaved=   2.
 NSaved= 2 IEnMin= 2 EnMin= -75.9729622943282     IErMin= 2 ErrMin= 3.10D-05
 ErrMax= 3.10D-05  0.00D+00 EMaxC= 1.00D-01 BMatC= 1.06D-07 BMatP= 1.37D-06
 IDIUse=1 WtCom= 1.00D+00 WtEn= 0.00D+00
 Coeff-Com:  0.109D+00 0.891D+00
 Coeff:      0.109D+00 0.891D+00
 Gap=     0.551 Goal=   None    Shift=    0.000
 Gap=     0.219 Goal=   None    Shift=    0.000
 RMSDP=6.27D-06 MaxDP=7.04D-05 DE=-3.94D-07 OVMax= 6.64D-05

 Cycle   3  Pass 1  IDiag  1:
 E= -75.9729623024301     Delta-E=       -0.000000008102 Rises=F Damp=F
 DIIS: error= 2.17D-05 at cycle   3 NSaved=   3.
 NSaved= 3 IEnMin= 3 EnMin= -75.9729623024301     IErMin= 3 ErrMin= 2.17D-05
 ErrMax= 2.17D-05  0.00D+00 EMaxC= 1.00D-01 BMatC= 5.86D-08 BMatP= 1.06D-07
 IDIUse=1 WtCom= 1.00D+00 WtEn= 0.00D+00
 Coeff-Com: -0.378D-02 0.423D+00 0.581D+00
 Coeff:     -0.378D-02 0.423D+00 0.581D+00
 Gap=     0.551 Goal=   None    Shift=    0.000
 Gap=     0.219 Goal=   None    Shift=    0.000
 RMSDP=3.25D-06 MaxDP=3.85D-05 DE=-8.10D-09 OVMax= 3.82D-05

 Cycle   4  Pass 1  IDiag  1:
 E= -75.9729623133979     Delta-E=       -0.000000010968 Rises=F Damp=F
 DIIS: error= 3.69D-06 at cycle   4 NSaved=   4.
 NSaved= 4 IEnMin= 4 EnMin= -75.9729623133979     IErMin= 4 ErrMin= 3.69D-06
 ErrMax= 3.69D-06  0.00D+00 EMaxC= 1.00D-01 BMatC= 1.06D-09 BMatP= 5.86D-08
 IDIUse=1 WtCom= 1.00D+00 WtEn= 0.00D+00
 Coeff-Com: -0.549D-02 0.703D-01 0.177D+00 0.758D+00
 Coeff:     -0.549D-02 0.703D-01 0.177D+00 0.758D+00
 Gap=     0.551 Goal=   None    Shift=    0.000
 Gap=     0.219 Goal=   None    Shift=    0.000
 RMSDP=3.85D-07 MaxDP=4.45D-06 DE=-1.10D-08 OVMax= 5.78D-06

 Cycle   5  Pass 1  IDiag  1:
 E= -75.9729623135995     Delta-E=       -0.000000000202 Rises=F Damp=F
 DIIS: error= 2.57D-07 at cycle   5 NSaved=   5.
 NSaved= 5 IEnMin= 5 EnMin= -75.9729623135995     IErMin= 5 ErrMin= 2.57D-07
 ErrMax= 2.57D-07  0.00D+00 EMaxC= 1.00D-01 BMatC= 3.99D-12 BMatP= 1.06D-09
 IDIUse=1 WtCom= 1.00D+00 WtEn= 0.00D+00
 Coeff-Com:  0.798D-04-0.873D-02-0.954D-02-0.286D-01 0.105D+01
 Coeff:      0.798D-04-0.873D-02-0.954D-02-0.286D-01 0.105D+01
 Gap=     0.551 Goal=   None    Shift=    0.000
 Gap=     0.219 Goal=   None    Shift=    0.000
 RMSDP=5.05D-08 MaxDP=5.77D-07 DE=-2.02D-10 OVMax= 7.78D-07

 Cycle   6  Pass 1  IDiag  1:
 E= -75.9729623136013     Delta-E=       -0.000000000002 Rises=F Damp=F
 DIIS: error= 5.41D-08 at cycle   6 NSaved=   6.
 NSaved= 6 IEnMin= 6 EnMin= -75.9729623136013     IErMin= 6 ErrMin= 5.41D-08
 ErrMax= 5.41D-08  0.00D+00 EMaxC= 1.00D-01 BMatC= 2.75D-13 BMatP= 3.99D-12
 IDIUse=1 WtCom= 1.00D+00 WtEn= 0.00D+00
 Coeff-Com:  0.157D-03 0.573D-03-0.258D-02-0.124D-01-0.359D+00 0.137D+01
 Coeff:      0.157D-03 0.573D-03-0.258D-02-0.124D-01-0.359D+00 0.137D+01
 Gap=     0.551 Goal=   None    Shift=    0.000
 Gap=     0.219 Goal=   None    Shift=    0.000
 RMSDP=2.23D-08 MaxDP=2.26D-07 DE=-1.79D-12 OVMax= 2.90D-07

 Cycle   7  Pass 1  IDiag  1:
 E= -75.9729623136015     Delta-E=       -0.000000000000 Rises=F Damp=F
 DIIS: error= 9.72D-09 at cycle   7 NSaved=   7.
 NSaved= 7 IEnMin= 7 EnMin= -75.9729623136015     IErMin= 7 ErrMin= 9.72D-09
 ErrMax= 9.72D-09  0.00D+00 EMaxC= 1.00D-01 BMatC= 6.15D-15 BMatP= 2.75D-13
 IDIUse=1 WtCom= 1.00D+00 WtEn= 0.00D+00
 Coeff-Com: -0.207D-04 0.209D-03 0.464D-03 0.170D-02 0.133D-01-0.214D+00
 Coeff-Com:  0.120D+01
 Coeff:     -0.207D-04 0.209D-03 0.464D-03 0.170D-02 0.133D-01-0.214D+00
 Coeff:      0.120D+01
 Gap=     0.551 Goal=   None    Shift=    0.000
 Gap=     0.219 Goal=   None    Shift=    0.000
 RMSDP=3.63D-09 MaxDP=3.95D-08 DE=-2.27D-13 OVMax= 5.09D-08

 SCF Done:  E(UB3LYP) =  -75.9729623136     A.U. after    7 cycles
            NFock=  7  Conv=0.36D-08     -V/T= 2.0059
 <Sx>= 0.0000 <Sy>= 0.0000 <Sz>= 0.5000 <S**2>= 0.7525 S= 0.5013
 <L.S>= 0.000000000000E+00
 KE= 7.552708251247D+01 PE=-1.928408552762D+02 EE= 3.266290336279D+01
 Annihilation of the first spin contaminant:
 S**2 before annihilation     0.7525,   after     0.7500
 Leave Link  502 at Tue Jun  8 12:07:44 2021, MaxMem=   134217728 cpu:               2.3 elap:               0.2
 (Enter /APL/ISV/x86_64/gaussian/16/C.01/g16/l701.exe)
 ... and contract with generalized density number  0.
 Compute integral first derivatives.
 Leave Link  701 at Tue Jun  8 12:07:44 2021, MaxMem=   134217728 cpu:               1.4 elap:               0.1
 (Enter /APL/ISV/x86_64/gaussian/16/C.01/g16/l702.exe)
 L702 exits ... SP integral derivatives will be done elsewhere.
 Leave Link  702 at Tue Jun  8 12:07:44 2021, MaxMem=   134217728 cpu:               0.4 elap:               0.0
 (Enter /APL/ISV/x86_64/gaussian/16/C.01/g16/l703.exe)
 Integral derivatives from FoFJK, PRISM(SPDF).
 Compute integral first derivatives, UseDBF=F ICtDFT=           0.
 Calling FoFJK, ICntrl=      2127 FMM=F ISym2X=1 I1Cent= 0 IOpClX= 1 NMat=1 NMatS=1 NMatT=0.
 FoFJK:  IHMeth= 1 ICntrl=    2127 DoSepK=F KAlg= 0 I1Cent=           0 FoldK=F
 IRaf=         0 NMat=       1 IRICut=       1 DoRegI=T DoRafI=F ISym2E= 1 IDoP0=0 IntGTp=1.
 FoFCou: FMM=F IPFlag=           0 FMFlag=      100000 FMFlg1=         800
         NFxFlg=           0 DoJE=F BraDBF=F KetDBF=F FulRan=T
         wScrn=  0.000000 ICntrl=      2127 IOpCl=  1 I1Cent=           0 NGrid=           0
         NMat0=    1 NMatS0=      1 NMatT0=    0 NMatD0=    1 NMtDS0=    0 NMtDT0=    0
 Petite list used in FoFCou.
 Leave Link  703 at Tue Jun  8 12:07:44 2021, MaxMem=   134217728 cpu:               1.9 elap:               0.1
 (Enter /APL/ISV/x86_64/gaussian/16/C.01/g16/l716.exe)
 Dipole        =-6.32345303D-17-4.44089210D-16-8.76423334D-01
 ***** Axes restored to original set *****
 -------------------------------------------------------------------
 Center     Atomic                   Forces (Hartrees/Bohr)
 Number     Number              X              Y              Z
 -------------------------------------------------------------------
      1        8           0.000001036    0.000001036    0.000000000
      2        1          -0.000002790    0.000001755   -0.000000000
      3        1           0.000001755   -0.000002790   -0.000000000
 -------------------------------------------------------------------
 Cartesian Forces:  Max     0.000002790 RMS     0.000001629
 Leave Link  716 at Tue Jun  8 12:07:44 2021, MaxMem=   134217728 cpu:               0.4 elap:               0.1
 (Enter /APL/ISV/x86_64/gaussian/16/C.01/g16/l103.exe)

 GradGradGradGradGradGradGradGradGradGradGradGradGradGradGradGradGradGrad
 Berny optimization.
 Using GEDIIS/GDIIS optimizer.
 FormGI is forming the generalized inverse of G from B-inverse, IUseBI=4.
 Internal  Forces:  Max     0.000003033 RMS     0.000002858
 Search for a local minimum.
 Step number   7 out of a maximum of   20
 All quantities printed in internal units (Hartrees-Bohrs-Radians)
 RMS Force = .28582D-05 SwitMx=.10000D-02 MixMth= 2
 Mixed Optimization -- En-DIIS/RFO-DIIS
 Swapping is turned off.
 Update second derivatives using D2CorX and points    4    5    6    7
 DE= -8.70D-07 DEPred=-8.74D-07 R= 9.96D-01
 Trust test= 9.96D-01 RLast= 2.45D-03 DXMaxT set to 1.43D+00
 The second derivative matrix:
                          R1        R2        A1
           R1           0.25792
           R2           0.14459   0.25792
           A1           0.02056   0.02056   0.14271
 ITU=  0  0  1  1
     Eigenvalues ---    0.11333   0.13949   0.40572
 En-DIIS/RFO-DIIS/Sim-DIIS IScMMF=       -3 using points:     7    6    5
 RFO step:  Lambda= 0.00000000D+00.
 NNeg= 0 NGDIIS= 3 SimSw=  2.50D-01 Rises=F DC= -8.70D-07 SmlDif=  1.00D-05
 NRisDI= 0 DoIntr=F SqrtH=F CThrHd= 10.0 CDAdj=  3.0
 RMS Error=  0.1045138120D-04 NUsed= 3 OKEnD=F EnDIS=F
 InvSVX:  RCond= 4.93D-09 Info=           0 Equed=N FErr=  1.66D-14 BErr=  1.00D-16
 DIIS inversion failure, remove point   3.
 InvSVX:  RCond= 1.50D-06 Info=           0 Equed=N FErr=  1.00D-15 BErr=  5.55D-17
 RFO-DIIS uses    2 points instead of    3
 DidBck=F Rises=F RFO-DIIS coefs:    1.00036   -0.00036    0.00000
 Iteration  1 RMS(Cart)=  0.00001211 RMS(Int)=  0.00000000
 Iteration  2 RMS(Cart)=  0.00000000 RMS(Int)=  0.00000000
 ITry= 1 IFail=0 DXMaxC= 1.19D-05 DCOld= 1.00D+10 DXMaxT= 1.43D+00 DXLimC= 3.00D+00 Rises=F
 ClnCor:  largest displacement from symmetrization is 5.76D-14 for atom     3.
 Variable       Old X    -DE/DX   Delta X   Delta X   Delta X     New X
                                 (Linear)    (Quad)   (Total)
    R1        1.91489  -0.00000   0.00000  -0.00001  -0.00001   1.91489
    R2        1.91489  -0.00000   0.00000  -0.00001  -0.00001   1.91489
    A1        1.88842  -0.00000  -0.00000  -0.00001  -0.00002   1.88840
         Item               Value     Threshold  Converged?
 Maximum Force            0.000003     0.000450     YES
 RMS     Force            0.000003     0.000300     YES
 Maximum Displacement     0.000012     0.001800     YES
 RMS     Displacement     0.000012     0.001200     YES
 Predicted change in Energy=-3.948312D-11
 Optimization completed.
    -- Stationary point found.
                           ----------------------------
                           !   Optimized Parameters   !
                           ! (Angstroms and Degrees)  !
 --------------------------                            --------------------------
 ! Name  Definition              Value          Derivative Info.                !
 --------------------------------------------------------------------------------
 ! R1    R(1,2)                  1.0133         -DE/DX =    0.0                 !
 ! R2    R(1,3)                  1.0133         -DE/DX =    0.0                 !
 ! A1    A(2,1,3)              108.1984         -DE/DX =    0.0                 !
 --------------------------------------------------------------------------------
 Lowest energy point so far.  Saving SCF results.
 Largest change from initial coordinates is atom    2       0.444 Angstoms.
 GradGradGradGradGradGradGradGradGradGradGradGradGradGradGradGradGradGrad

 Leave Link  103 at Tue Jun  8 12:07:44 2021, MaxMem=   134217728 cpu:               0.2 elap:               0.0
 (Enter /APL/ISV/x86_64/gaussian/16/C.01/g16/l202.exe)
                          Input orientation:                          
 ---------------------------------------------------------------------
 Center     Atomic      Atomic             Coordinates (Angstroms)
 Number     Number       Type             X           Y           Z
 ---------------------------------------------------------------------
      1          8           0        0.219895    0.219895    0.000000
      2          1           0        1.220461    0.059645   -0.000000
      3          1           0        0.059645    1.220461    0.000000
 ---------------------------------------------------------------------
                    Distance matrix (angstroms):
                    1          2          3
     1  O    0.000000
     2  H    1.013317   0.000000
     3  H    1.013317   1.641642   0.000000
 Stoichiometry    H2O(1+,2)
 Framework group  C2V[C2(O),SGV(H2)]
 Deg. of freedom     2
 Full point group                 C2V     NOp   4
 RotChk:  IX=0 Diff= 7.82D-16
 Largest Abelian subgroup         C2V     NOp   4
 Largest concise Abelian subgroup C2      NOp   2
                         Standard orientation:                         
 ---------------------------------------------------------------------
 Center     Atomic      Atomic             Coordinates (Angstroms)
 Number     Number       Type             X           Y           Z
 ---------------------------------------------------------------------
      1          8           0        0.000000   -0.000000    0.118839
      2          1           0       -0.000000    0.820821   -0.475354
      3          1           0       -0.000000   -0.820821   -0.475354
 ---------------------------------------------------------------------
 Rotational constants (GHZ):         799.6360055         372.1391063         253.9530200
 Leave Link  202 at Tue Jun  8 12:07:44 2021, MaxMem=   134217728 cpu:               0.2 elap:               0.0
 (Enter /APL/ISV/x86_64/gaussian/16/C.01/g16/l601.exe)
 Copying SCF densities to generalized density rwf, IOpCl= 1 IROHF=0.

 **********************************************************************

            Population analysis using the SCF Density.

 **********************************************************************

 Orbital symmetries:
 Alpha Orbitals:
       Occupied  (A1) (A1) (B2) (B1) (A1)
       Virtual   (A1) (B2) (B2) (A1) (B1) (A1) (B2) (A2) (A1) (B1)
                 (A1) (B2) (B2) (A1) (B1) (A2) (A1) (A1) (B2)
 Beta  Orbitals:
       Occupied  (A1) (A1) (B2) (A1)
       Virtual   (B1) (A1) (B2) (B2) (A1) (A1) (B1) (B2) (A2) (A1)
                 (B1) (A1) (B2) (B2) (A1) (B1) (A2) (A1) (A1) (B2)
 The electronic state is 2-B1.
 Alpha  occ. eigenvalues --  -19.70216  -1.50584  -0.98337  -0.86634  -0.85050
 Alpha virt. eigenvalues --   -0.29925  -0.22105   0.17920   0.18565   0.42916
 Alpha virt. eigenvalues --    0.47080   0.58966   0.79452   0.83802   1.02426
 Alpha virt. eigenvalues --    1.15067   1.21469   1.58632   1.58654   2.31816
 Alpha virt. eigenvalues --    2.38652   2.54929   2.93158   3.18538
  Beta  occ. eigenvalues --  -19.67459  -1.43301  -0.96197  -0.82057
  Beta virt. eigenvalues --   -0.60108  -0.28838  -0.21471   0.17770   0.19130
  Beta virt. eigenvalues --    0.48436   0.52549   0.60116   0.80827   0.84691
  Beta virt. eigenvalues --    1.04065   1.19058   1.21156   1.59163   1.62270
  Beta virt. eigenvalues --    2.39526   2.46419   2.57871   2.99591   3.19830
          Condensed to atoms (all electrons):
               1          2          3
     1  O    7.008108   0.321419   0.321419
     2  H    0.321419   0.363344  -0.010235
     3  H    0.321419  -0.010235   0.363344
          Atomic-Atomic Spin Densities.
               1          2          3
     1  O    1.054749  -0.001204  -0.001204
     2  H   -0.001204  -0.026237   0.001271
     3  H   -0.001204   0.001271  -0.026237
 Mulliken charges and spin densities:
               1          2
     1  O    0.349055   1.052341
     2  H    0.325473  -0.026171
     3  H    0.325473  -0.026171
 Sum of Mulliken charges =   1.00000   1.00000
 Mulliken charges and spin densities with hydrogens summed into heavy atoms:
               1          2
     1  O    1.000000   1.000000
 Electronic spatial extent (au):  <R**2>=             14.8139
 Charge=              1.0000 electrons
 Dipole moment (field-independent basis, Debye):
    X=             -0.0000    Y=              0.0000    Z=             -2.2276  Tot=              2.2276
 Quadrupole moment (field-independent basis, Debye-Ang):
   XX=             -4.7390   YY=             -1.6731   ZZ=             -4.3275
   XY=              0.0000   XZ=              0.0000   YZ=             -0.0000
 Traceless Quadrupole moment (field-independent basis, Debye-Ang):
   XX=             -1.1591   YY=              1.9068   ZZ=             -0.7477
   XY=              0.0000   XZ=              0.0000   YZ=             -0.0000
 Octapole moment (field-independent basis, Debye-Ang**2):
  XXX=              0.0000  YYY=              0.0000  ZZZ=             -1.3937  XYY=             -0.0000
  XXY=              0.0000  XXZ=             -0.2005  XZZ=             -0.0000  YZZ=              0.0000
  YYZ=             -2.0248  XYZ=             -0.0000
 Hexadecapole moment (field-independent basis, Debye-Ang**3):
 XXXX=             -2.6089 YYYY=             -2.5239 ZZZZ=             -4.2760 XXXY=             -0.0000
 XXXZ=             -0.0000 YYYX=              0.0000 YYYZ=             -0.0000 ZZZX=             -0.0000
 ZZZY=             -0.0000 XXYY=             -1.3463 XXZZ=             -1.1976 YYZZ=             -0.6610
 XXYZ=             -0.0000 YYXZ=              0.0000 ZZXY=              0.0000
 N-N= 8.677907087327D+00 E-N=-1.928408552352D+02  KE= 7.552708251247D+01
 Symmetry A1   KE= 6.881590229675D+01
 Symmetry A2   KE= 1.291735067554D-34
 Symmetry B1   KE= 2.708666346218D+00
 Symmetry B2   KE= 4.002513869511D+00
 Symmetry A1   SP=-7.164963258115D-15
 Symmetry A2   SP= 6.740173626261D-37
 Symmetry B1   SP= 1.000000000000D+00
 Symmetry B2   SP=-1.127636365637D-16
                          Isotropic Fermi Contact Couplings
        Atom                 a.u.       MegaHertz       Gauss      10(-4) cm-1
     1  O(17)              0.20637    -125.09922     -44.63851     -41.72861
     2  H(1)              -0.01375     -61.47492     -21.93578     -20.50583
     3  H(1)              -0.01375     -61.47492     -21.93578     -20.50583
 --------------------------------------------------------
       Center         ----  Spin Dipole Couplings  ----
                      3XX-RR        3YY-RR        3ZZ-RR
 --------------------------------------------------------
     1   Atom        3.976409     -1.961085     -2.015324
     2   Atom       -0.047471      0.072637     -0.025166
     3   Atom       -0.047471      0.072637     -0.025166
 --------------------------------------------------------
                        XY            XZ            YZ
 --------------------------------------------------------
     1   Atom       -0.000000     -0.000000      0.000000
     2   Atom       -0.000000     -0.000000     -0.134950
     3   Atom        0.000000      0.000000      0.134950
 --------------------------------------------------------


 ---------------------------------------------------------------------------------
              Anisotropic Spin Dipole Couplings in Principal Axis System
 ---------------------------------------------------------------------------------

       Atom             a.u.   MegaHertz   Gauss  10(-4) cm-1        Axes

              Baa    -2.0153   145.827    52.035    48.643  0.0000 -0.0000  1.0000
     1 O(17)  Bbb    -1.9611   141.903    50.634    47.334  0.0000  1.0000  0.0000
              Bcc     3.9764  -287.730  -102.669   -95.976  1.0000 -0.0000 -0.0000
 
              Baa    -0.1198   -63.920   -22.808   -21.322  0.0000  0.5742  0.8187
     2 H(1)   Bbb    -0.0475   -25.328    -9.038    -8.449  1.0000 -0.0000  0.0000
              Bcc     0.1673    89.249    31.846    29.770  0.0000  0.8187 -0.5742
 
              Baa    -0.1198   -63.920   -22.808   -21.322 -0.0000 -0.5742  0.8187
     3 H(1)   Bbb    -0.0475   -25.328    -9.038    -8.449  1.0000 -0.0000  0.0000
              Bcc     0.1673    89.249    31.846    29.770  0.0000  0.8187  0.5742
 

 ---------------------------------------------------------------------------------

 No NMR shielding tensors so no spin-rotation constants.
 Leave Link  601 at Tue Jun  8 12:07:44 2021, MaxMem=   134217728 cpu:               2.2 elap:               0.2
 (Enter /APL/ISV/x86_64/gaussian/16/C.01/g16/l9999.exe)
 Unable to Open any file for archive entry.
 1\1\GINC-LEMON\FOpt\UB3LYP\CC-pVDZ\H2O1(1+,2)\YAGI\08-Jun-2021\0\\#P B
 3LYP/cc-pVDZ opt\\B3LYP/cc-pVDZ water +1\\1,2\O,0.219894714,0.21989471
 4,0.\H,1.2204606264,0.0596446596,0.\H,0.0596446596,1.2204606264,0.\\Ve
 rsion=ES64L-G16RevC.01\State=2-B1\HF=-75.9729623\S2=0.752545\S2-1=0.\S
 2A=0.750004\RMSD=3.632e-09\RMSF=1.629e-06\Dipole=0.6197249,0.6197249,0
 .\Quadrupole=0.4308912,0.4308912,-0.8617824,-0.986762,0.,0.\PG=C02V [C
 2(O1),SGV(H2)]\\@
 The archive entry for this job was punched.


 ...THE PHYSICISTS HAVE MADE THEIR UNIVERSE, AND IF YOU DO NOT LIKE
 IT, YOU MUST MAKE YOUR OWN.
                               -- E. R. HARRISON IN "COSMOLOGY" (1980)
 Job cpu time:       0 days  0 hours  1 minutes 33.9 seconds.
 Elapsed time:       0 days  0 hours  0 minutes  8.0 seconds.
 File lengths (MBytes):  RWF=      6 Int=      0 D2E=      0 Chk=      1 Scr=      1
 Normal termination of Gaussian 16 at Tue Jun  8 12:07:44 2021.

real	0m8.354s
user	1m28.545s
sys	0m5.418s
