B3LYP/cc-pVDZ water -1                                                  
FOpt      UB3LYP                                                      CC-pVDZ             
Number of atoms                            I                3
Info1-9                                    I   N=           9
          12          12           0           0           0         110
           2          18        -502
Full Title                                 C   N=           2
B3LYP/cc-pVDZ water -1  
Route                                      C   N=           2
#P B3LYP/cc-pVDZ opt    
Charge                                     I               -1
Multiplicity                               I                2
Number of electrons                        I               11
Number of alpha electrons                  I                6
Number of beta electrons                   I                5
Number of basis functions                  I               24
Number of independent functions            I               24
Number of point charges in /Mol/           I                0
Number of translation vectors              I                0
Atomic numbers                             I   N=           3
           8           1           1
Nuclear charges                            R   N=           3
  8.00000000E+00  1.00000000E+00  1.00000000E+00
Current cartesian coordinates              R   N=           9
  3.08148791E-33  8.94662030E-18  2.60278940E-01 -4.43734259E-31  1.49312393E+00
 -1.04111576E+00 -1.82854944E-16 -1.49312393E+00 -1.04111576E+00
Number of symbols in /Mol/                 I                0
Int Atom Types                             I   N=           3
           0           0           0
Force Field                                I                0
Atom Types                                 C   N=           3
                                    
MM charges                                 R   N=           3
  0.00000000E+00  0.00000000E+00  0.00000000E+00
Integer atomic weights                     I   N=           3
          16           1           1
Real atomic weights                        R   N=           3
  1.59949146E+01  1.00782504E+00  1.00782504E+00
Atom fragment info                         I   N=           3
           0           0           0
Atom residue num                           I   N=           3
           0           0           0
Nuclear spins                              I   N=           3
           0           1           1
Nuclear ZEff                               R   N=           3
 -5.60000000E+00 -1.00000000E+00 -1.00000000E+00
Nuclear ZNuc                               R   N=           3
  8.00000000E+00  1.00000000E+00  1.00000000E+00
Nuclear QMom                               R   N=           3
  0.00000000E+00  0.00000000E+00  0.00000000E+00
Nuclear GFac                               R   N=           3
  0.00000000E+00  2.79284600E+00  2.79284600E+00
MicOpt                                     I   N=           3
          -1          -1          -1
Number of residues                         I                0
Number of secondary structures             I                0
Redundant internal dimensions              I   N=           4
           3           2           1           0
Redundant internal coordinate indices      I   N=          12
           1           2           0           0           1           3
           0           0           2           1           3           0
Redundant internal coordinates             R   N=           3
  1.98066838E+00  1.98066838E+00  1.70779970E+00
ZRed-IntVec                                I   N=           3
           0           0           0
ZRed-FPVec                                 R   N=           3
  0.00000000E+00  0.00000000E+00  0.00000000E+00
ZRed-Constraint1                           R   N=           3
  2.83458919E+00  2.83458919E+00  1.57079633E+00
ZRed-Constraint2                           R   N=           3
  0.00000000E+00  0.00000000E+00  0.00000000E+00
SymInf integers                            I   N=          26
           2           4           1           1           1          -1
          -1           1          -1           1           1           1
          -1           1           0           0           0           0
           0           0           0           0           0           0
           0           0
RotTr to input orientation                 R   N=          12
 -1.73191211E-16  2.59786817E-16 -1.00000000E+00  7.07106781E-01 -7.07106781E-01
 -3.06161700E-16 -7.07106781E-01 -7.07106781E-01 -6.12323400E-17  5.15424720E-01
  5.15424720E-01  1.54814390E-16
Number of contracted shells                I               12
Number of primitive shells                 I               30
Pure/Cartesian d shells                    I                0
Pure/Cartesian f shells                    I                0
Highest angular momentum                   I                2
Largest degree of contraction              I                7
Shell types                                I   N=          12
           0           0           0           1           1          -2
           0           0           1           0           0           1
Number of primitives per shell             I   N=          12
           7           7           1           3           1           1
           3           1           1           3           1           1
Shell to atom map                          I   N=          12
           1           1           1           1           1           1
           2           2           2           3           3           3
Primitive exponents                        R   N=          30
  1.17200000E+04  1.75900000E+03  4.00800000E+02  1.13700000E+02  3.70300000E+01
  1.32700000E+01  5.02500000E+00  1.17200000E+04  4.00800000E+02  1.13700000E+02
  3.70300000E+01  1.32700000E+01  5.02500000E+00  1.01300000E+00  3.02300000E-01
  1.77000000E+01  3.85400000E+00  1.04600000E+00  2.75300000E-01  1.18500000E+00
  1.30100000E+01  1.96200000E+00  4.44600000E-01  1.22000000E-01  7.27000000E-01
  1.30100000E+01  1.96200000E+00  4.44600000E-01  1.22000000E-01  7.27000000E-01
Contraction coefficients                   R   N=          30
  7.11864434E-04  5.48520199E-03  2.79099296E-02  1.05133208E-01  2.84002490E-01
  4.51673946E-01  2.73208126E-01  7.69030046E-06  3.13484579E-04 -2.96614853E-03
 -1.08753543E-02 -1.20753817E-01 -1.06275264E-01  1.09597548E+00  1.00000000E+00
  6.26791663E-02  3.33536566E-01  7.41239642E-01  1.00000000E+00  1.00000000E+00
  3.34987264E-02  2.34800801E-01  8.13682958E-01  1.00000000E+00  1.00000000E+00
  3.34987264E-02  2.34800801E-01  8.13682958E-01  1.00000000E+00  1.00000000E+00
Coordinates of each shell                  R   N=          36
  1.23259516E-32 -1.50728965E-17  2.60278940E-01  1.23259516E-32 -1.50728965E-17
  2.60278940E-01  1.23259516E-32 -1.50728965E-17  2.60278940E-01  1.23259516E-32
 -1.50728965E-17  2.60278940E-01  1.23259516E-32 -1.50728965E-17  2.60278940E-01
  1.23259516E-32 -1.50728965E-17  2.60278940E-01  4.93038066E-32  1.49312393E+00
 -1.04111576E+00  4.93038066E-32  1.49312393E+00 -1.04111576E+00  4.93038066E-32
  1.49312393E+00 -1.04111576E+00 -1.82854944E-16 -1.49312393E+00 -1.04111576E+00
 -1.82854944E-16 -1.49312393E+00 -1.04111576E+00 -1.82854944E-16 -1.49312393E+00
 -1.04111576E+00
Num ILSW                                   I              100
ILSW                                       I   N=         100
           1           0           0           1           2           0
           0           0           0           0         402          -1
           5           0           0           0           2           0
           0           0           0           0           1           0
           1           0           0           0           0           0
           0           0      100000           0          -1           0
           0           0           0           0           0           0
           0           0           0           1           0           0
           0 -2000000000           1           0           0           0
           0           0           4          52           0           0
           0           0           5           0           0           0
           0           0           0           3           0           1
           0           0           0           0           0           0
           0           0           0           0           0           0
           0           0           0           0           0           0
           0           0           0           0           0           0
           0           0           0           0
Num RLSW                                   I               52
RLSW                                       R   N=          52
  8.00000000E-01  7.20000000E-01  1.00000000E+00  8.10000000E-01  2.00000000E-01
  0.00000000E+00  0.00000000E+00  1.00000000E+00  0.00000000E+00  0.00000000E+00
  0.00000000E+00  0.00000000E+00  1.00000000E+00  0.00000000E+00  0.00000000E+00
  0.00000000E+00  0.00000000E+00  1.00000000E+00  0.00000000E+00  0.00000000E+00
  0.00000000E+00  0.00000000E+00  1.00000000E+00  0.00000000E+00  0.00000000E+00
  0.00000000E+00  0.00000000E+00  1.00000000E+00  0.00000000E+00  0.00000000E+00
  0.00000000E+00  0.00000000E+00  1.00000000E+00  0.00000000E+00  0.00000000E+00
  0.00000000E+00  0.00000000E+00  0.00000000E+00  1.00000000E+00  1.00000000E+00
  0.00000000E+00  1.00000000E+00  0.00000000E+00  0.00000000E+00  0.00000000E+00
  0.00000000E+00  0.00000000E+00  0.00000000E+00  0.00000000E+00  0.00000000E+00
  0.00000000E+00  0.00000000E+00
MxBond                                     I                2
NBond                                      I   N=           3
           2           1           1
IBond                                      I   N=           6
           2           3           1           0           1           0
RBond                                      R   N=           6
  1.00000000E-01  1.00000000E-01  1.00000000E-01  0.00000000E+00  1.00000000E-01
  0.00000000E+00
Virial Ratio                               R      2.000338978345370E+00
SCF Energy                                 R     -7.628323459428303E+01
Total Energy                               R     -7.628323459428303E+01
S**2                                       R      7.512984245887120E-01
S**2 after annihilation                    R      7.500008290435525E-01
RMS Force                                  R      3.968410333424711E-05
RMS Density                                R      2.738192100420278E-09
Job Status                                 I                1
Nuclear derivative order                   I                1
External E-field                           R   N=          35
  0.00000000E+00  0.00000000E+00  0.00000000E+00  0.00000000E+00  0.00000000E+00
  0.00000000E+00  0.00000000E+00  0.00000000E+00  0.00000000E+00  0.00000000E+00
  0.00000000E+00  0.00000000E+00  0.00000000E+00  0.00000000E+00  0.00000000E+00
  0.00000000E+00  0.00000000E+00  0.00000000E+00  0.00000000E+00  0.00000000E+00
  0.00000000E+00  0.00000000E+00  0.00000000E+00  0.00000000E+00  0.00000000E+00
  0.00000000E+00  0.00000000E+00  0.00000000E+00  0.00000000E+00  0.00000000E+00
  0.00000000E+00  0.00000000E+00  0.00000000E+00  0.00000000E+00  0.00000000E+00
IOpCl                                      I                1
IROHF                                      I                0
Alpha Orbital Energies                     R   N=          24
 -1.87984723E+01 -6.43903179E-01 -1.52819317E-01 -6.85801099E-02  2.95119393E-02
  2.28157789E-01  3.47228066E-01  7.91228827E-01  8.57467683E-01  1.20367997E+00
  1.20932713E+00  1.28273302E+00  1.46647781E+00  1.55702855E+00  1.69875695E+00
  1.89708696E+00  1.93231209E+00  2.25095492E+00  2.29363079E+00  3.18244591E+00
  3.18596736E+00  3.33433707E+00  3.67990221E+00  3.97614285E+00
Beta Orbital Energies                      R   N=          24
 -1.87902510E+01 -6.21853657E-01 -1.41684307E-01 -5.13648365E-02  3.84658748E-02
  3.17958786E-01  3.79850881E-01  8.04286164E-01  8.88295223E-01  1.21735169E+00
  1.21984585E+00  1.29529732E+00  1.47956663E+00  1.57062805E+00  1.71224187E+00
  1.90958798E+00  1.94890926E+00  2.26774152E+00  2.31644158E+00  3.18841678E+00
  3.20323405E+00  3.35117100E+00  3.68987649E+00  3.99222768E+00
Alpha MO coefficients                      R   N=         576
  9.96437117E-01  2.15183369E-02 -8.03100649E-03  0.00000000E+00  0.00000000E+00
 -1.22219874E-03  0.00000000E+00  0.00000000E+00  1.20952164E-03  4.10118591E-05
  0.00000000E+00  0.00000000E+00 -8.71666754E-05  0.00000000E+00  3.70540126E-04
  1.03007030E-03  0.00000000E+00  3.48018183E-04 -4.34239258E-04  3.70540126E-04
  1.03007030E-03  0.00000000E+00 -3.48018183E-04 -4.34239258E-04 -2.08963548E-01
  4.53450530E-01  4.05284368E-01  0.00000000E+00  0.00000000E+00 -1.01790818E-01
  0.00000000E+00  0.00000000E+00  9.96326828E-03  3.07922552E-03  0.00000000E+00
  0.00000000E+00 -3.63377510E-03  0.00000000E+00  1.64766575E-01  2.55040245E-02
  0.00000000E+00 -2.73321848E-02  1.85421341E-02  1.64766575E-01  2.55040245E-02
  0.00000000E+00  2.73321848E-02  1.85421341E-02  0.00000000E+00  0.00000000E+00
  0.00000000E+00  0.00000000E+00  4.80563527E-01  0.00000000E+00  0.00000000E+00
  2.21715930E-01  0.00000000E+00  0.00000000E+00  0.00000000E+00 -1.73756988E-02
  0.00000000E+00  0.00000000E+00  2.89424876E-01  2.06453838E-01  0.00000000E+00
 -9.00273156E-03  2.65208315E-02 -2.89424876E-01 -2.06453838E-01  0.00000000E+00
 -9.00273156E-03 -2.65208315E-02 -7.81818923E-02  1.36567643E-01  3.86301172E-01
  0.00000000E+00  0.00000000E+00  5.26413276E-01  0.00000000E+00  0.00000000E+00
  3.54351003E-01 -1.29123313E-02  0.00000000E+00  0.00000000E+00  1.53593465E-03
  0.00000000E+00 -2.04767296E-01 -8.48427507E-02  0.00000000E+00  1.93342202E-02
  6.64124693E-03 -2.04767296E-01 -8.48427507E-02  0.00000000E+00 -1.93342202E-02
  6.64124693E-03  0.00000000E+00  0.00000000E+00  0.00000000E+00  6.23839985E-01
  0.00000000E+00  0.00000000E+00  5.11289477E-01  0.00000000E+00  0.00000000E+00
  0.00000000E+00 -1.37952616E-02  0.00000000E+00  0.00000000E+00  0.00000000E+00
  0.00000000E+00  0.00000000E+00  2.60002218E-02  0.00000000E+00  0.00000000E+00
  0.00000000E+00  0.00000000E+00  2.60002218E-02  0.00000000E+00  0.00000000E+00
 -8.41443474E-02  1.01733946E-01  8.50052831E-01  0.00000000E+00  0.00000000E+00
 -2.74671969E-01  0.00000000E+00  0.00000000E+00 -3.81232092E-01  9.02261240E-03
  0.00000000E+00  0.00000000E+00 -5.01479015E-03  0.00000000E+00 -9.59347875E-02
 -7.50253865E-01  0.00000000E+00  3.90117974E-03 -1.02412912E-02 -9.59347875E-02
 -7.50253865E-01  0.00000000E+00 -3.90117974E-03 -1.02412912E-02  0.00000000E+00
  0.00000000E+00  0.00000000E+00  0.00000000E+00 -3.80890908E-01  0.00000000E+00
  0.00000000E+00 -6.34784530E-01  0.00000000E+00  0.00000000E+00  0.00000000E+00
  1.24537820E-02  0.00000000E+00  0.00000000E+00  5.94075703E-02  1.25120376E+00
  0.00000000E+00 -7.34538192E-03  6.38609397E-03 -5.94075703E-02 -1.25120376E+00
  0.00000000E+00 -7.34538192E-03 -6.38609397E-03  0.00000000E+00  0.00000000E+00
  0.00000000E+00  0.00000000E+00 -2.82416564E-01  0.00000000E+00  0.00000000E+00
 -2.45468029E-01  0.00000000E+00  0.00000000E+00  0.00000000E+00 -9.44763020E-02
  0.00000000E+00  0.00000000E+00  9.39784122E-01 -8.92618516E-01  0.00000000E+00
  5.37006941E-02 -9.92687986E-02 -9.39784122E-01  8.92618516E-01  0.00000000E+00
  5.37006941E-02  9.92687986E-02  3.20886598E-02 -2.72820062E-01  4.33202096E-01
  0.00000000E+00  0.00000000E+00  4.25050477E-01  0.00000000E+00  0.00000000E+00
 -1.03051756E-01  1.20940178E-02  0.00000000E+00  0.00000000E+00 -7.81852945E-02
  0.00000000E+00  8.08703796E-01 -6.42355279E-01  0.00000000E+00  2.08529784E-01
 -8.09869800E-02  8.08703796E-01 -6.42355279E-01  0.00000000E+00 -2.08529784E-01
 -8.09869800E-02  6.00929788E-02 -2.69760412E-01 -3.30624396E-01  0.00000000E+00
  0.00000000E+00 -7.46643950E-01  0.00000000E+00  0.00000000E+00  1.21585360E+00
 -1.36817218E-02  0.00000000E+00  0.00000000E+00 -2.77413568E-02  0.00000000E+00
  5.24697590E-01  5.78276722E-03  0.00000000E+00 -9.34223949E-03  2.33271444E-01
  5.24697590E-01  5.78276722E-03  0.00000000E+00  9.34223949E-03  2.33271444E-01
  0.00000000E+00  0.00000000E+00  0.00000000E+00 -9.66321582E-01  0.00000000E+00
  0.00000000E+00  9.66432009E-01  0.00000000E+00  0.00000000E+00  0.00000000E+00
 -7.72884062E-04  0.00000000E+00  0.00000000E+00  0.00000000E+00  0.00000000E+00
  0.00000000E+00  7.45171653E-02  0.00000000E+00  0.00000000E+00  0.00000000E+00
  0.00000000E+00  7.45171653E-02  0.00000000E+00  0.00000000E+00  0.00000000E+00
  0.00000000E+00  0.00000000E+00  0.00000000E+00 -8.12334611E-01  0.00000000E+00
  0.00000000E+00  1.64664602E+00  0.00000000E+00  0.00000000E+00  0.00000000E+00
 -6.14693892E-03  0.00000000E+00  0.00000000E+00 -3.15405164E-01 -6.96324179E-01
  0.00000000E+00  2.41153746E-01 -1.38411397E-01  3.15405164E-01  6.96324179E-01
  0.00000000E+00  2.41153746E-01  1.38411397E-01  3.67843408E-02 -4.45859520E-01
  3.03740502E-01  0.00000000E+00  0.00000000E+00 -1.42193010E-01  0.00000000E+00
  0.00000000E+00  7.06776435E-01  1.35752659E-01  0.00000000E+00  0.00000000E+00
  4.03362355E-02  0.00000000E+00  3.26607527E-01 -1.53297465E-01  0.00000000E+00
 -4.39290026E-01 -4.58500164E-01  3.26607527E-01 -1.53297465E-01  0.00000000E+00
  4.39290026E-01 -4.58500164E-01  0.00000000E+00  0.00000000E+00  0.00000000E+00
  0.00000000E+00  0.00000000E+00  0.00000000E+00  0.00000000E+00  0.00000000E+00
  0.00000000E+00  0.00000000E+00  0.00000000E+00  0.00000000E+00  0.00000000E+00
  1.45661447E-01  0.00000000E+00  0.00000000E+00  6.84561881E-01  0.00000000E+00
  0.00000000E+00  0.00000000E+00  0.00000000E+00 -6.84561881E-01  0.00000000E+00
  0.00000000E+00  0.00000000E+00  0.00000000E+00  0.00000000E+00  1.18442737E-01
  0.00000000E+00  0.00000000E+00 -6.49899522E-01  0.00000000E+00  0.00000000E+00
  0.00000000E+00 -1.72124637E-01  0.00000000E+00  0.00000000E+00  0.00000000E+00
  0.00000000E+00  0.00000000E+00  7.38507269E-01  0.00000000E+00  0.00000000E+00
  0.00000000E+00  0.00000000E+00  7.38507269E-01  0.00000000E+00  0.00000000E+00
  8.62630736E-03 -1.70185513E+00  2.74510880E+00  0.00000000E+00  0.00000000E+00
  8.52190094E-02  0.00000000E+00  0.00000000E+00 -9.84350603E-01 -1.18557450E-01
  0.00000000E+00  0.00000000E+00  1.13725101E-01  0.00000000E+00 -6.99380739E-01
 -3.35739919E-01  0.00000000E+00  2.64437857E-01 -4.72364511E-03 -6.99380739E-01
 -3.35739919E-01  0.00000000E+00 -2.64437857E-01 -4.72364511E-03  0.00000000E+00
  0.00000000E+00  0.00000000E+00  0.00000000E+00  2.25024619E-02  0.00000000E+00
  0.00000000E+00  7.68622096E-01  0.00000000E+00  0.00000000E+00  0.00000000E+00
  3.90116118E-02  0.00000000E+00  0.00000000E+00 -2.89458617E-01 -1.02805170E-01
  0.00000000E+00 -3.82338794E-01 -7.28330395E-01  2.89458617E-01  1.02805170E-01
  0.00000000E+00 -3.82338794E-01  7.28330395E-01  0.00000000E+00  0.00000000E+00
  0.00000000E+00  0.00000000E+00  6.36908135E-01  0.00000000E+00  0.00000000E+00
  1.01982155E-01  0.00000000E+00  0.00000000E+00  0.00000000E+00  1.19418616E-01
  0.00000000E+00  0.00000000E+00 -1.22294391E-01 -3.79017699E-01  0.00000000E+00
  7.30961208E-01 -4.49157348E-01  1.22294391E-01  3.79017699E-01  0.00000000E+00
  7.30961208E-01  4.49157348E-01 -7.18184350E-02  2.56668725E-01  1.13164325E+00
  0.00000000E+00  0.00000000E+00 -5.76598708E-01  0.00000000E+00  0.00000000E+00
 -3.14979552E-01 -4.97094767E-02  0.00000000E+00  0.00000000E+00  1.97709384E-01
  0.00000000E+00 -4.23187198E-01 -2.32128691E-01  0.00000000E+00  6.99749523E-01
 -5.95571312E-01 -4.23187198E-01 -2.32128691E-01  0.00000000E+00 -6.99749523E-01
 -5.95571312E-01  0.00000000E+00  0.00000000E+00  0.00000000E+00  0.00000000E+00
  0.00000000E+00  0.00000000E+00  0.00000000E+00  0.00000000E+00  0.00000000E+00
  0.00000000E+00  0.00000000E+00  0.00000000E+00  0.00000000E+00  1.03232909E+00
  0.00000000E+00  0.00000000E+00 -3.11368925E-01  0.00000000E+00  0.00000000E+00
  0.00000000E+00  0.00000000E+00  3.11368925E-01  0.00000000E+00  0.00000000E+00
  0.00000000E+00  0.00000000E+00  0.00000000E+00  4.31837981E-02  0.00000000E+00
  0.00000000E+00 -2.64051909E-01  0.00000000E+00  0.00000000E+00  0.00000000E+00
  1.02412241E+00  0.00000000E+00  0.00000000E+00  0.00000000E+00  0.00000000E+00
  0.00000000E+00  3.49271239E-01  0.00000000E+00  0.00000000E+00  0.00000000E+00
  0.00000000E+00  3.49271239E-01  0.00000000E+00  0.00000000E+00  6.02813893E-04
 -7.70319390E-02  6.57162341E-02  0.00000000E+00  0.00000000E+00  7.63676787E-02
  0.00000000E+00  0.00000000E+00 -2.75455668E-01  9.57652510E-01  0.00000000E+00
  0.00000000E+00  4.64785392E-01  0.00000000E+00 -6.59346318E-02  1.45350102E-02
  0.00000000E+00  2.13770714E-01  3.27976600E-01 -6.59346318E-02  1.45350102E-02
  0.00000000E+00 -2.13770714E-01  3.27976600E-01 -6.74368050E-02 -4.73202888E-01
  2.07317179E+00  0.00000000E+00  0.00000000E+00 -2.42634861E-01  0.00000000E+00
  0.00000000E+00 -1.00266659E+00  4.70544115E-01  0.00000000E+00  0.00000000E+00
 -1.01673311E+00  0.00000000E+00 -1.00876807E+00 -1.92141679E-01  0.00000000E+00
  6.02190076E-01 -4.11766234E-01 -1.00876807E+00 -1.92141679E-01  0.00000000E+00
 -6.02190076E-01 -4.11766234E-01  0.00000000E+00  0.00000000E+00  0.00000000E+00
  0.00000000E+00 -2.77094841E-01  0.00000000E+00  0.00000000E+00 -9.87730018E-01
  0.00000000E+00  0.00000000E+00  0.00000000E+00  1.28354809E+00  0.00000000E+00
  0.00000000E+00  8.03536910E-01  2.79488100E-01  0.00000000E+00 -5.20258538E-01
  5.14766746E-01 -8.03536910E-01 -2.79488100E-01  0.00000000E+00 -5.20258538E-01
 -5.14766746E-01
Beta MO coefficients                       R   N=         576
  9.96469319E-01  2.13437921E-02 -8.02144226E-03  0.00000000E+00  0.00000000E+00
 -1.00388464E-03  0.00000000E+00  0.00000000E+00  1.18355769E-03 -8.12284414E-05
  0.00000000E+00  0.00000000E+00 -9.36924678E-05  0.00000000E+00  4.02923521E-04
  1.02580154E-03  0.00000000E+00  3.06932311E-04 -4.24713414E-04  4.02923521E-04
  1.02580154E-03  0.00000000E+00 -3.06932311E-04 -4.24713414E-04 -2.09185684E-01
  4.44461360E-01  4.16097262E-01  0.00000000E+00  0.00000000E+00 -7.30083754E-02
  0.00000000E+00  0.00000000E+00  1.58399676E-02 -1.04683114E-03  0.00000000E+00
  0.00000000E+00 -4.37293010E-03  0.00000000E+00  1.65923407E-01  2.61999079E-02
  0.00000000E+00 -2.84309606E-02  1.95546679E-02  1.65923407E-01  2.61999079E-02
  0.00000000E+00  2.84309606E-02  1.95546679E-02  0.00000000E+00  0.00000000E+00
  0.00000000E+00  0.00000000E+00  4.89500583E-01  0.00000000E+00  0.00000000E+00
  2.37989630E-01  0.00000000E+00  0.00000000E+00  0.00000000E+00 -1.46354243E-02
  0.00000000E+00  0.00000000E+00  2.87838720E-01  1.73472944E-01  0.00000000E+00
 -1.28300868E-02  2.93165267E-02 -2.87838720E-01 -1.73472944E-01  0.00000000E+00
 -1.28300868E-02 -2.93165267E-02 -7.44330161E-02  1.39613107E-01  3.71926312E-01
  0.00000000E+00  0.00000000E+00  5.16728256E-01  0.00000000E+00  0.00000000E+00
  3.54123179E-01 -1.08971759E-02  0.00000000E+00  0.00000000E+00  1.48309355E-03
  0.00000000E+00 -2.17713866E-01 -8.53520854E-02  0.00000000E+00  2.29629463E-02
  4.26058023E-03 -2.17713866E-01 -8.53520854E-02  0.00000000E+00 -2.29629463E-02
  4.26058023E-03  0.00000000E+00  0.00000000E+00  0.00000000E+00  6.19879557E-01
  0.00000000E+00  0.00000000E+00  5.15964248E-01  0.00000000E+00  0.00000000E+00
  0.00000000E+00 -1.03305676E-02  0.00000000E+00  0.00000000E+00  0.00000000E+00
  0.00000000E+00  0.00000000E+00  2.53991913E-02  0.00000000E+00  0.00000000E+00
  0.00000000E+00  0.00000000E+00  2.53991913E-02  0.00000000E+00  0.00000000E+00
 -8.58057177E-02  9.74918879E-02  8.74854510E-01  0.00000000E+00  0.00000000E+00
 -2.59790899E-01  0.00000000E+00  0.00000000E+00 -4.03574881E-01  6.34859258E-03
  0.00000000E+00  0.00000000E+00 -7.21945317E-03  0.00000000E+00 -7.72270212E-02
 -7.67884303E-01  0.00000000E+00  1.06817478E-02 -1.47715256E-02 -7.72270212E-02
 -7.67884303E-01  0.00000000E+00 -1.06817478E-02 -1.47715256E-02  0.00000000E+00
  0.00000000E+00  0.00000000E+00  0.00000000E+00 -3.70831535E-01  0.00000000E+00
  0.00000000E+00 -6.31814891E-01  0.00000000E+00  0.00000000E+00  0.00000000E+00
  9.64846883E-03  0.00000000E+00  0.00000000E+00  7.38886164E-02  1.25502338E+00
  0.00000000E+00 -1.17794160E-02  9.65628086E-03 -7.38886164E-02 -1.25502338E+00
  0.00000000E+00 -1.17794160E-02 -9.65628086E-03  0.00000000E+00  0.00000000E+00
  0.00000000E+00  0.00000000E+00 -2.79645689E-01  0.00000000E+00  0.00000000E+00
 -2.53243397E-01  0.00000000E+00  0.00000000E+00  0.00000000E+00 -9.51534582E-02
  0.00000000E+00  0.00000000E+00  9.43516046E-01 -8.92101790E-01  0.00000000E+00
  4.73879183E-02 -9.34442791E-02 -9.43516046E-01  8.92101790E-01  0.00000000E+00
  4.73879183E-02  9.34442791E-02  3.68299012E-02 -2.66551492E-01  3.71806285E-01
  0.00000000E+00  0.00000000E+00  4.27014653E-01  0.00000000E+00  0.00000000E+00
 -5.78486117E-02  1.52563317E-02  0.00000000E+00  0.00000000E+00 -7.92709366E-02
  0.00000000E+00  8.24338599E-01 -6.17852089E-01  0.00000000E+00  2.04016508E-01
 -7.50232558E-02  8.24338599E-01 -6.17852089E-01  0.00000000E+00 -2.04016508E-01
 -7.50232558E-02  5.83630583E-02 -2.74472648E-01 -3.16416709E-01  0.00000000E+00
  0.00000000E+00 -7.55560902E-01  0.00000000E+00  0.00000000E+00  1.21328821E+00
 -1.70040171E-02  0.00000000E+00  0.00000000E+00 -2.68214593E-02  0.00000000E+00
  5.12420056E-01  6.38639208E-03  0.00000000E+00 -1.76467969E-02  2.34196062E-01
  5.12420056E-01  6.38639208E-03  0.00000000E+00  1.76467969E-02  2.34196062E-01
  0.00000000E+00  0.00000000E+00  0.00000000E+00  9.69076394E-01  0.00000000E+00
  0.00000000E+00 -9.66455846E-01  0.00000000E+00  0.00000000E+00  0.00000000E+00
  5.39890465E-03  0.00000000E+00  0.00000000E+00  0.00000000E+00  0.00000000E+00
  0.00000000E+00 -7.18707892E-02  0.00000000E+00  0.00000000E+00  0.00000000E+00
  0.00000000E+00 -7.18707892E-02  0.00000000E+00  0.00000000E+00  0.00000000E+00
  0.00000000E+00  0.00000000E+00  0.00000000E+00 -8.16854534E-01  0.00000000E+00
  0.00000000E+00  1.64794849E+00  0.00000000E+00  0.00000000E+00  0.00000000E+00
 -9.55281129E-03  0.00000000E+00  0.00000000E+00 -3.11730082E-01 -6.98569461E-01
  0.00000000E+00  2.37733337E-01 -1.39765581E-01  3.11730082E-01  6.98569461E-01
  0.00000000E+00  2.37733337E-01  1.39765581E-01  3.62034498E-02 -4.46034017E-01
  3.10488776E-01  0.00000000E+00  0.00000000E+00 -1.38207084E-01  0.00000000E+00
  0.00000000E+00  6.99597333E-01  1.37023362E-01  0.00000000E+00  0.00000000E+00
  4.27042714E-02  0.00000000E+00  3.22277813E-01 -1.54986610E-01  0.00000000E+00
 -4.38743029E-01 -4.58845372E-01  3.22277813E-01 -1.54986610E-01  0.00000000E+00
  4.38743029E-01 -4.58845372E-01  0.00000000E+00  0.00000000E+00  0.00000000E+00
  0.00000000E+00  0.00000000E+00  0.00000000E+00  0.00000000E+00  0.00000000E+00
  0.00000000E+00  0.00000000E+00  0.00000000E+00  0.00000000E+00  0.00000000E+00
  1.48957535E-01  0.00000000E+00  0.00000000E+00  6.83564007E-01  0.00000000E+00
  0.00000000E+00  0.00000000E+00  0.00000000E+00 -6.83564007E-01  0.00000000E+00
  0.00000000E+00  0.00000000E+00  0.00000000E+00  0.00000000E+00  1.18865994E-01
  0.00000000E+00  0.00000000E+00 -6.47142915E-01  0.00000000E+00  0.00000000E+00
  0.00000000E+00 -1.73208955E-01  0.00000000E+00  0.00000000E+00  0.00000000E+00
  0.00000000E+00  0.00000000E+00  7.38302913E-01  0.00000000E+00  0.00000000E+00
  0.00000000E+00  0.00000000E+00  7.38302913E-01  0.00000000E+00  0.00000000E+00
  7.71038813E-03 -1.69980681E+00  2.77840408E+00  0.00000000E+00  0.00000000E+00
  8.51791271E-02  0.00000000E+00  0.00000000E+00 -1.00007033E+00 -1.15877550E-01
  0.00000000E+00  0.00000000E+00  1.15858307E-01  0.00000000E+00 -7.08245517E-01
 -3.45944155E-01  0.00000000E+00  2.85524635E-01 -1.98103004E-02 -7.08245517E-01
 -3.45944155E-01  0.00000000E+00 -2.85524635E-01 -1.98103004E-02  0.00000000E+00
  0.00000000E+00  0.00000000E+00  0.00000000E+00  2.41717580E-02  0.00000000E+00
  0.00000000E+00  7.62305214E-01  0.00000000E+00  0.00000000E+00  0.00000000E+00
  4.01019609E-02  0.00000000E+00  0.00000000E+00 -2.86067414E-01 -1.02024462E-01
  0.00000000E+00 -3.82914117E-01 -7.27952175E-01  2.86067414E-01  1.02024462E-01
  0.00000000E+00 -3.82914117E-01  7.27952175E-01  0.00000000E+00  0.00000000E+00
  0.00000000E+00  0.00000000E+00  6.29436428E-01  0.00000000E+00  0.00000000E+00
  1.02202994E-01  0.00000000E+00  0.00000000E+00  0.00000000E+00  1.21512969E-01
  0.00000000E+00  0.00000000E+00 -1.13190294E-01 -3.79910826E-01  0.00000000E+00
  7.31508523E-01 -4.48796264E-01  1.13190294E-01  3.79910826E-01  0.00000000E+00
  7.31508523E-01  4.48796264E-01 -7.18536657E-02  2.97060546E-01  1.05817681E+00
  0.00000000E+00  0.00000000E+00 -5.82870185E-01  0.00000000E+00  0.00000000E+00
 -2.84713614E-01 -5.04288655E-02  0.00000000E+00  0.00000000E+00  1.99359552E-01
  0.00000000E+00 -3.95847498E-01 -2.24086087E-01  0.00000000E+00  6.90778967E-01
 -5.92479980E-01 -3.95847498E-01 -2.24086087E-01  0.00000000E+00 -6.90778967E-01
 -5.92479980E-01  0.00000000E+00  0.00000000E+00  0.00000000E+00  0.00000000E+00
  0.00000000E+00  0.00000000E+00  0.00000000E+00  0.00000000E+00  0.00000000E+00
  0.00000000E+00  0.00000000E+00  0.00000000E+00  0.00000000E+00  1.03185864E+00
  0.00000000E+00  0.00000000E+00 -3.13553543E-01  0.00000000E+00  0.00000000E+00
  0.00000000E+00  0.00000000E+00  3.13553543E-01  0.00000000E+00  0.00000000E+00
  0.00000000E+00  0.00000000E+00  0.00000000E+00  3.68564928E-02  0.00000000E+00
  0.00000000E+00 -2.61630653E-01  0.00000000E+00  0.00000000E+00  0.00000000E+00
  1.02396645E+00  0.00000000E+00  0.00000000E+00  0.00000000E+00  0.00000000E+00
  0.00000000E+00  3.50300560E-01  0.00000000E+00  0.00000000E+00  0.00000000E+00