B3LYP/cc-pVDZ water +1                                                  
FOpt      UB3LYP                                                      CC-pVDZ             
Number of atoms                            I                3
Info1-9                                    I   N=           9
          12          12           0           0           0         110
           2          18        -502
Full Title                                 C   N=           2
B3LYP/cc-pVDZ water +1  
Route                                      C   N=           2
#P B3LYP/cc-pVDZ opt    
Charge                                     I                1
Multiplicity                               I                2
Number of electrons                        I                9
Number of alpha electrons                  I                5
Number of beta electrons                   I                4
Number of basis functions                  I               24
Number of independent functions            I               24
Number of point charges in /Mol/           I                0
Number of translation vectors              I                0
Atomic numbers                             I   N=           3
           8           1           1
Nuclear charges                            R   N=           3
  8.00000000E+00  1.00000000E+00  1.00000000E+00
Current cartesian coordinates              R   N=           9
  1.69481835E-32  2.28845796E-18  2.24572423E-01 -9.86076132E-32  1.55112659E+00
 -8.98289691E-01 -1.89958221E-16 -1.55112659E+00 -8.98289691E-01
Number of symbols in /Mol/                 I                0
Int Atom Types                             I   N=           3
           0           0           0
Force Field                                I                0
Atom Types                                 C   N=           3
                                    
MM charges                                 R   N=           3
  0.00000000E+00  0.00000000E+00  0.00000000E+00
Integer atomic weights                     I   N=           3
          16           1           1
Real atomic weights                        R   N=           3
  1.59949146E+01  1.00782504E+00  1.00782504E+00
Atom fragment info                         I   N=           3
           0           0           0
Atom residue num                           I   N=           3
           0           0           0
Nuclear spins                              I   N=           3
           0           1           1
Nuclear ZEff                               R   N=           3
 -5.60000000E+00 -1.00000000E+00 -1.00000000E+00
Nuclear ZNuc                               R   N=           3
  8.00000000E+00  1.00000000E+00  1.00000000E+00
Nuclear QMom                               R   N=           3
  0.00000000E+00  0.00000000E+00  0.00000000E+00
Nuclear GFac                               R   N=           3
  0.00000000E+00  2.79284600E+00  2.79284600E+00
MicOpt                                     I   N=           3
          -1          -1          -1
Number of residues                         I                0
Number of secondary structures             I                0
Redundant internal dimensions              I   N=           4
           3           2           1           0
Redundant internal coordinate indices      I   N=          12
           1           2           0           0           1           3
           0           0           2           1           3           0
Redundant internal coordinates             R   N=           3
  1.91489243E+00  1.91489243E+00  1.88841772E+00
ZRed-IntVec                                I   N=           3
           0           0           0
ZRed-FPVec                                 R   N=           3
  0.00000000E+00  0.00000000E+00  0.00000000E+00
ZRed-Constraint1                           R   N=           3
  2.83458919E+00  2.83458919E+00  1.57079633E+00
ZRed-Constraint2                           R   N=           3
  0.00000000E+00  0.00000000E+00  0.00000000E+00
SymInf integers                            I   N=          26
           2           4           1           1           1          -1
          -1           1          -1           1           1           1
          -1           1           0           0           0           0
           0           0           0           0           0           0
           0           0
RotTr to input orientation                 R   N=          12
 -1.73191211E-16  2.59786817E-16 -1.00000000E+00  7.07106781E-01 -7.07106781E-01
 -3.06161700E-16 -7.07106781E-01 -7.07106781E-01 -6.12323400E-17  5.74337469E-01
  5.74337469E-01  1.63195581E-16
Number of contracted shells                I               12
Number of primitive shells                 I               30
Pure/Cartesian d shells                    I                0
Pure/Cartesian f shells                    I                0
Highest angular momentum                   I                2
Largest degree of contraction              I                7
Shell types                                I   N=          12
           0           0           0           1           1          -2
           0           0           1           0           0           1
Number of primitives per shell             I   N=          12
           7           7           1           3           1           1
           3           1           1           3           1           1
Shell to atom map                          I   N=          12
           1           1           1           1           1           1
           2           2           2           3           3           3
Primitive exponents                        R   N=          30
  1.17200000E+04  1.75900000E+03  4.00800000E+02  1.13700000E+02  3.70300000E+01
  1.32700000E+01  5.02500000E+00  1.17200000E+04  4.00800000E+02  1.13700000E+02
  3.70300000E+01  1.32700000E+01  5.02500000E+00  1.01300000E+00  3.02300000E-01
  1.77000000E+01  3.85400000E+00  1.04600000E+00  2.75300000E-01  1.18500000E+00
  1.30100000E+01  1.96200000E+00  4.44600000E-01  1.22000000E-01  7.27000000E-01
  1.30100000E+01  1.96200000E+00  4.44600000E-01  1.22000000E-01  7.27000000E-01
Contraction coefficients                   R   N=          30
  7.11864434E-04  5.48520199E-03  2.79099296E-02  1.05133208E-01  2.84002490E-01
  4.51673946E-01  2.73208126E-01  7.69030046E-06  3.13484579E-04 -2.96614853E-03
 -1.08753543E-02 -1.20753817E-01 -1.06275264E-01  1.09597548E+00  1.00000000E+00
  6.26791663E-02  3.33536566E-01  7.41239642E-01  1.00000000E+00  1.00000000E+00
  3.34987264E-02  2.34800801E-01  8.13682958E-01  1.00000000E+00  1.00000000E+00
  3.34987264E-02  2.34800801E-01  8.13682958E-01  1.00000000E+00  1.00000000E+00
Coordinates of each shell                  R   N=          36
  1.07852077E-32  1.47585174E-19  2.24572423E-01  1.07852077E-32  1.47585174E-19
  2.24572423E-01  1.07852077E-32  1.47585174E-19  2.24572423E-01  1.07852077E-32
  1.47585174E-19  2.24572423E-01  1.07852077E-32  1.47585174E-19  2.24572423E-01
  1.07852077E-32  1.47585174E-19  2.24572423E-01 -9.86076132E-32  1.55112659E+00
 -8.98289691E-01 -9.86076132E-32  1.55112659E+00 -8.98289691E-01 -9.86076132E-32
  1.55112659E+00 -8.98289691E-01 -1.89958221E-16 -1.55112659E+00 -8.98289691E-01
 -1.89958221E-16 -1.55112659E+00 -8.98289691E-01 -1.89958221E-16 -1.55112659E+00
 -8.98289691E-01
Num ILSW                                   I              100
ILSW                                       I   N=         100
           1           0           0           1           2           0
           0           0           0           0         402          -1
           5           0           0           0           2           0
           0           0           0           0           1           0
           1           0           0           0           0           0
           0           0      100000           0          -1           0
           0           0           0           0           0           0
           0           0           0           1           0           0
           0 -2000000000           1           0           0           0
           0           0           4          52           0           0
           0           0           5           0           0           0
           0           0           0           3           0           1
           0           0           0           0           0           0
           0           0           0           0           0           0
           0           0           0           0           0           0
           0           0           0           0           0           0
           0           0           0           0
Num RLSW                                   I               52
RLSW                                       R   N=          52
  8.00000000E-01  7.20000000E-01  1.00000000E+00  8.10000000E-01  2.00000000E-01
  0.00000000E+00  0.00000000E+00  1.00000000E+00  0.00000000E+00  0.00000000E+00
  0.00000000E+00  0.00000000E+00  1.00000000E+00  0.00000000E+00  0.00000000E+00
  0.00000000E+00  0.00000000E+00  1.00000000E+00  0.00000000E+00  0.00000000E+00
  0.00000000E+00  0.00000000E+00  1.00000000E+00  0.00000000E+00  0.00000000E+00
  0.00000000E+00  0.00000000E+00  1.00000000E+00  0.00000000E+00  0.00000000E+00
  0.00000000E+00  0.00000000E+00  1.00000000E+00  0.00000000E+00  0.00000000E+00
  0.00000000E+00  0.00000000E+00  0.00000000E+00  1.00000000E+00  1.00000000E+00
  0.00000000E+00  1.00000000E+00  0.00000000E+00  0.00000000E+00  0.00000000E+00
  0.00000000E+00  0.00000000E+00  0.00000000E+00  0.00000000E+00  0.00000000E+00
  0.00000000E+00  0.00000000E+00
MxBond                                     I                2
NBond                                      I   N=           3
           2           1           1
IBond                                      I   N=           6
           2           3           1           0           1           0
RBond                                      R   N=           6
  1.00000000E-01  1.00000000E-01  1.00000000E-01  0.00000000E+00  1.00000000E-01
  0.00000000E+00
Virial Ratio                               R      2.005903575065981E+00
SCF Energy                                 R     -7.597296231360151E+01
Total Energy                               R     -7.597296231360151E+01
S**2                                       R      7.525446754545260E-01
S**2 after annihilation                    R      7.500039989631678E-01
RMS Force                                  R      1.628685144980025E-06
RMS Density                                R      3.631662583980086E-09
Job Status                                 I                1
Nuclear derivative order                   I                1
External E-field                           R   N=          35
  0.00000000E+00  0.00000000E+00  0.00000000E+00  0.00000000E+00  0.00000000E+00
  0.00000000E+00  0.00000000E+00  0.00000000E+00  0.00000000E+00  0.00000000E+00
  0.00000000E+00  0.00000000E+00  0.00000000E+00  0.00000000E+00  0.00000000E+00
  0.00000000E+00  0.00000000E+00  0.00000000E+00  0.00000000E+00  0.00000000E+00
  0.00000000E+00  0.00000000E+00  0.00000000E+00  0.00000000E+00  0.00000000E+00
  0.00000000E+00  0.00000000E+00  0.00000000E+00  0.00000000E+00  0.00000000E+00
  0.00000000E+00  0.00000000E+00  0.00000000E+00  0.00000000E+00  0.00000000E+00
IOpCl                                      I                1
IROHF                                      I                0
Alpha Orbital Energies                     R   N=          24
 -1.97021638E+01 -1.50583562E+00 -9.83368297E-01 -8.66336428E-01 -8.50501891E-01
 -2.99254354E-01 -2.21046659E-01  1.79201320E-01  1.85645813E-01  4.29155644E-01
  4.70798533E-01  5.89659294E-01  7.94519977E-01  8.38022900E-01  1.02426088E+00
  1.15067291E+00  1.21468909E+00  1.58632140E+00  1.58654201E+00  2.31816119E+00
  2.38651778E+00  2.54929276E+00  2.93157568E+00  3.18537546E+00
Beta Orbital Energies                      R   N=          24
 -1.96745882E+01 -1.43300821E+00 -9.61974303E-01 -8.20566649E-01 -6.01075344E-01
 -2.88381199E-01 -2.14711445E-01  1.77696856E-01  1.91296660E-01  4.84356573E-01
  5.25492207E-01  6.01163559E-01  8.08265817E-01  8.46905905E-01  1.04065414E+00
  1.19058396E+00  1.21156205E+00  1.59163375E+00  1.62270052E+00  2.39525843E+00
  2.46418938E+00  2.57870505E+00  2.99591140E+00  3.19830064E+00
Alpha MO coefficients                      R   N=         576
  9.96335469E-01  2.21944608E-02 -7.95029557E-03  0.00000000E+00  0.00000000E+00
 -1.73292475E-03  0.00000000E+00  0.00000000E+00  1.15333898E-03 -1.94178242E-04
  0.00000000E+00  0.00000000E+00 -2.52920021E-06  0.00000000E+00  1.15363654E-04
  1.08227618E-03  0.00000000E+00  6.15215692E-04 -6.08747330E-04  1.15363654E-04
  1.08227618E-03  0.00000000E+00 -6.15215692E-04 -6.08747330E-04 -2.16526386E-01
  4.97790242E-01  3.94220858E-01  0.00000000E+00  0.00000000E+00 -1.09378613E-01
  0.00000000E+00  0.00000000E+00 -1.21533313E-02 -5.32766394E-03  0.00000000E+00
  0.00000000E+00  8.04116452E-03  0.00000000E+00  1.55804946E-01 -5.09356862E-03
  0.00000000E+00 -3.50929421E-02  1.82863645E-02  1.55804946E-01 -5.09356862E-03
  0.00000000E+00  3.50929421E-02  1.82863645E-02  0.00000000E+00  0.00000000E+00
  0.00000000E+00  0.00000000E+00  5.72101629E-01  0.00000000E+00  0.00000000E+00
  2.17827642E-01  0.00000000E+00  0.00000000E+00  0.00000000E+00 -2.25073721E-02
  0.00000000E+00  0.00000000E+00  2.96464101E-01  2.88642453E-02  0.00000000E+00
 -2.58607234E-02  3.15821761E-02 -2.96464101E-01 -2.88642453E-02  0.00000000E+00
 -2.58607234E-02 -3.15821761E-02  0.00000000E+00  0.00000000E+00  0.00000000E+00
  7.21436315E-01  0.00000000E+00  0.00000000E+00  4.01877765E-01  0.00000000E+00
  0.00000000E+00  0.00000000E+00 -2.14353348E-02  0.00000000E+00  0.00000000E+00
  0.00000000E+00  0.00000000E+00  0.00000000E+00  2.40248778E-02  0.00000000E+00
  0.00000000E+00  0.00000000E+00  0.00000000E+00  2.40248778E-02  0.00000000E+00
  0.00000000E+00 -6.90724530E-02  1.60736762E-01  2.81457784E-01  0.00000000E+00
  0.00000000E+00  6.22993877E-01  0.00000000E+00  0.00000000E+00  3.22482947E-01
 -2.38540014E-02  0.00000000E+00  0.00000000E+00  5.61455431E-03  0.00000000E+00
 -1.84316483E-01 -2.17405889E-02  0.00000000E+00  3.28736321E-02  8.24903170E-03
 -1.84316483E-01 -2.17405889E-02  0.00000000E+00 -3.28736321E-02  8.24903170E-03
 -8.79695975E-02  2.15934229E-01  7.10388466E-01  0.00000000E+00  0.00000000E+00
 -2.86965796E-01  0.00000000E+00  0.00000000E+00 -2.50478798E-01  4.75917519E-03
  0.00000000E+00  0.00000000E+00  1.68775349E-02  0.00000000E+00 -2.66033427E-01
 -6.23253724E-01  0.00000000E+00 -2.33395980E-02  6.65220243E-03 -2.66033427E-01
 -6.23253724E-01  0.00000000E+00  2.33395980E-02  6.65220243E-03  0.00000000E+00
  0.00000000E+00  0.00000000E+00  0.00000000E+00 -4.44105586E-01  0.00000000E+00
  0.00000000E+00 -5.01739708E-01  0.00000000E+00  0.00000000E+00  0.00000000E+00
 -1.52303406E-02  0.00000000E+00  0.00000000E+00  3.14074113E-01  9.47794940E-01
  0.00000000E+00  1.39724846E-02 -2.60397536E-02 -3.14074113E-01 -9.47794940E-01
  0.00000000E+00  1.39724846E-02  2.60397536E-02  0.00000000E+00  0.00000000E+00
  0.00000000E+00  0.00000000E+00  2.28357868E-01  0.00000000E+00  0.00000000E+00
  1.86149817E-01  0.00000000E+00  0.00000000E+00  0.00000000E+00  1.03112482E-01
  0.00000000E+00  0.00000000E+00 -9.07792673E-01  1.08112206E+00  0.00000000E+00
 -1.10494579E-02  1.00566676E-01  9.07792673E-01 -1.08112206E+00  0.00000000E+00
 -1.10494579E-02 -1.00566676E-01  2.49759819E-02 -1.71150265E-01  3.04015545E-01
  0.00000000E+00  0.00000000E+00  3.09820637E-01  0.00000000E+00  0.00000000E+00
 -2.93107868E-02 -6.85361742E-03  0.00000000E+00  0.00000000E+00 -1.01253203E-01
  0.00000000E+00  8.60973937E-01 -7.24969881E-01  0.00000000E+00  1.64198802E-01
 -2.13296851E-03  8.60973937E-01 -7.24969881E-01  0.00000000E+00 -1.64198802E-01
 -2.13296851E-03  0.00000000E+00  0.00000000E+00  0.00000000E+00 -8.98837501E-01
  0.00000000E+00  0.00000000E+00  1.01887078E+00  0.00000000E+00  0.00000000E+00
  0.00000000E+00 -4.55028766E-03  0.00000000E+00  0.00000000E+00  0.00000000E+00
  0.00000000E+00  0.00000000E+00  6.98624326E-02  0.00000000E+00  0.00000000E+00
  0.00000000E+00  0.00000000E+00  6.98624326E-02  0.00000000E+00  0.00000000E+00
  4.41264965E-02 -1.23953195E-01 -4.86176190E-01  0.00000000E+00  0.00000000E+00
 -7.54825149E-01  0.00000000E+00  0.00000000E+00  1.18447809E+00 -1.94371268E-02
  0.00000000E+00  0.00000000E+00 -3.01372366E-02  0.00000000E+00  4.09712783E-01
  1.04348923E-01  0.00000000E+00 -2.64276562E-02  2.34195051E-01  4.09712783E-01
  1.04348923E-01  0.00000000E+00  2.64276562E-02  2.34195051E-01  0.00000000E+00
  0.00000000E+00  0.00000000E+00  0.00000000E+00 -7.35152747E-01  0.00000000E+00
  0.00000000E+00  1.73058536E+00  0.00000000E+00  0.00000000E+00  0.00000000E+00
  1.07972860E-02  0.00000000E+00  0.00000000E+00 -3.23816705E-01 -8.29814111E-01
  0.00000000E+00  2.59621831E-01 -5.63807622E-02  3.23816705E-01  8.29814111E-01
  0.00000000E+00  2.59621831E-01  5.63807622E-02  0.00000000E+00  0.00000000E+00
  0.00000000E+00  0.00000000E+00  0.00000000E+00  0.00000000E+00  0.00000000E+00
  0.00000000E+00  0.00000000E+00  0.00000000E+00  0.00000000E+00  0.00000000E+00
  0.00000000E+00  1.81579780E-01  0.00000000E+00  0.00000000E+00  6.64614782E-01
  0.00000000E+00  0.00000000E+00  0.00000000E+00  0.00000000E+00 -6.64614782E-01
  0.00000000E+00  0.00000000E+00  3.12894954E-02 -7.49347129E-01  9.07025523E-01
  0.00000000E+00  0.00000000E+00 -1.63095308E-01  0.00000000E+00  0.00000000E+00
  6.02596502E-01  1.58547435E-01  0.00000000E+00  0.00000000E+00  3.13633869E-02
  0.00000000E+00  2.27575827E-01 -2.76673523E-01  0.00000000E+00 -2.93174088E-01
 -5.07268453E-01  2.27575827E-01 -2.76673523E-01  0.00000000E+00  2.93174088E-01
 -5.07268453E-01  0.00000000E+00  0.00000000E+00  0.00000000E+00  8.45971733E-02
  0.00000000E+00  0.00000000E+00 -6.63168131E-01  0.00000000E+00  0.00000000E+00
  0.00000000E+00 -2.12550020E-01  0.00000000E+00  0.00000000E+00  0.00000000E+00
  0.00000000E+00  0.00000000E+00  7.40554378E-01  0.00000000E+00  0.00000000E+00
  0.00000000E+00  0.00000000E+00  7.40554378E-01  0.00000000E+00  0.00000000E+00
  1.19967787E-03 -1.58032567E+00  2.69784587E+00  0.00000000E+00  0.00000000E+00
  6.39844772E-02  0.00000000E+00  0.00000000E+00 -9.77807097E-01 -1.59674177E-01
  0.00000000E+00  0.00000000E+00  1.18186606E-01  0.00000000E+00 -6.68343992E-01
 -3.82114181E-01  0.00000000E+00  3.38472374E-01  1.52806658E-01 -6.68343992E-01
 -3.82114181E-01  0.00000000E+00 -3.38472374E-01  1.52806658E-01  0.00000000E+00
  0.00000000E+00  0.00000000E+00  0.00000000E+00 -1.35796958E-01  0.00000000E+00
  0.00000000E+00  9.83684420E-01  0.00000000E+00  0.00000000E+00  0.00000000E+00
  2.82192819E-02  0.00000000E+00  0.00000000E+00 -4.05467586E-01 -1.09036941E-01
  0.00000000E+00 -4.29155639E-01 -6.68963919E-01  4.05467586E-01  1.09036941E-01
  0.00000000E+00 -4.29155639E-01  6.68963919E-01  0.00000000E+00  0.00000000E+00
  0.00000000E+00  0.00000000E+00  6.72086061E-01  0.00000000E+00  0.00000000E+00
  2.96895902E-01  0.00000000E+00  0.00000000E+00  0.00000000E+00  1.54743692E-01
  0.00000000E+00  0.00000000E+00 -1.75817538E-01 -4.32687200E-01  0.00000000E+00
  6.84160287E-01 -5.62557900E-01  1.75817538E-01  4.32687200E-01  0.00000000E+00
  6.84160287E-01  5.62557900E-01 -5.82273900E-02  3.93757216E-01  9.77087695E-01
  0.00000000E+00  0.00000000E+00 -5.15815051E-01  0.00000000E+00  0.00000000E+00
 -2.46714968E-01 -8.95220355E-02  0.00000000E+00  0.00000000E+00  2.53653880E-01
  0.00000000E+00 -3.54230138E-01 -2.38061712E-01  0.00000000E+00  7.61832154E-01
 -4.81836253E-01 -3.54230138E-01 -2.38061712E-01  0.00000000E+00 -7.61832154E-01
 -4.81836253E-01  0.00000000E+00  0.00000000E+00  0.00000000E+00  3.94510494E-02
  0.00000000E+00  0.00000000E+00 -2.96610953E-01  0.00000000E+00  0.00000000E+00
  0.00000000E+00  1.01546623E+00  0.00000000E+00  0.00000000E+00  0.00000000E+00
  0.00000000E+00  0.00000000E+00  3.84479581E-01  0.00000000E+00  0.00000000E+00
  0.00000000E+00  0.00000000E+00  3.84479581E-01  0.00000000E+00  0.00000000E+00
  0.00000000E+00  0.00000000E+00  0.00000000E+00  0.00000000E+00  0.00000000E+00
  0.00000000E+00  0.00000000E+00  0.00000000E+00  0.00000000E+00  0.00000000E+00
  0.00000000E+00  0.00000000E+00  0.00000000E+00  1.04295833E+00  0.00000000E+00
  0.00000000E+00 -3.68961633E-01  0.00000000E+00  0.00000000E+00  0.00000000E+00
  0.00000000E+00  3.68961633E-01  0.00000000E+00  0.00000000E+00 -2.22853046E-02
 -1.78764961E-01  7.22537537E-01  0.00000000E+00  0.00000000E+00 -1.60523481E-02
  0.00000000E+00  0.00000000E+00 -5.89322827E-01  1.04584337E+00  0.00000000E+00
  0.00000000E+00  3.01753368E-02  0.00000000E+00 -3.60928876E-01 -6.74140837E-02
  0.00000000E+00  4.18236015E-01  2.64501937E-01 -3.60928876E-01 -6.74140837E-02
  0.00000000E+00 -4.18236015E-01  2.64501937E-01 -7.06161349E-02 -3.20668223E-01
  2.16196400E+00  0.00000000E+00  0.00000000E+00 -3.06043710E-01  0.00000000E+00
  0.00000000E+00 -8.39418067E-01 -2.23441084E-02  0.00000000E+00  0.00000000E+00
 -1.15368295E+00  0.00000000E+00 -1.05372307E+00 -2.20852553E-01  0.00000000E+00
  6.39343490E-01 -5.03707288E-01 -1.05372307E+00 -2.20852553E-01  0.00000000E+00
 -6.39343490E-01 -5.03707288E-01  0.00000000E+00  0.00000000E+00  0.00000000E+00
  0.00000000E+00 -3.43469396E-01  0.00000000E+00  0.00000000E+00 -1.16610890E+00
  0.00000000E+00  0.00000000E+00  0.00000000E+00  1.28456621E+00  0.00000000E+00
  0.00000000E+00  9.30783370E-01  3.15908109E-01  0.00000000E+00 -6.05513602E-01
  4.65109180E-01 -9.30783370E-01 -3.15908109E-01  0.00000000E+00 -6.05513602E-01
 -4.65109180E-01
Beta MO coefficients                       R   N=         576
  9.96581132E-01  2.05577331E-02 -6.91324216E-03  0.00000000E+00  0.00000000E+00
 -1.66970201E-03  0.00000000E+00  0.00000000E+00  8.61442731E-04  1.50216329E-04
  0.00000000E+00  0.00000000E+00 -6.23320542E-04  0.00000000E+00 -1.37008164E-04
  9.59252802E-04  0.00000000E+00  7.03717903E-04 -6.25827669E-04 -1.37008164E-04
  9.59252802E-04  0.00000000E+00 -7.03717903E-04 -6.25827669E-04 -2.10545353E-01
  4.72008152E-01  3.82911158E-01  0.00000000E+00  0.00000000E+00 -1.14130105E-01
  0.00000000E+00  0.00000000E+00 -8.09001134E-03  5.92096767E-03  0.00000000E+00
  0.00000000E+00 -1.09973972E-02  0.00000000E+00  1.80144949E-01 -8.89365901E-04
  0.00000000E+00 -3.82135482E-02  1.86758692E-02  1.80144949E-01 -8.89365901E-04
  0.00000000E+00  3.82135482E-02  1.86758692E-02  0.00000000E+00  0.00000000E+00
  0.00000000E+00  0.00000000E+00  5.51983710E-01  0.00000000E+00  0.00000000E+00
  2.09661545E-01  0.00000000E+00  0.00000000E+00  0.00000000E+00 -2.14358552E-02
  0.00000000E+00  0.00000000E+00  3.14800558E-01  3.69186648E-02  0.00000000E+00
 -2.59845111E-02  3.27198093E-02 -3.14800558E-01 -3.69186648E-02  0.00000000E+00
 -2.59845111E-02 -3.27198093E-02 -7.46848682E-02  1.67873391E-01  3.04053338E-01
  0.00000000E+00  0.00000000E+00  6.07383947E-01  0.00000000E+00  0.00000000E+00
  3.29499571E-01 -1.82539478E-02  0.00000000E+00  0.00000000E+00 -1.66779990E-03
  0.00000000E+00 -1.86436946E-01 -2.39673591E-02  0.00000000E+00  3.25780629E-02
  1.01994977E-02 -1.86436946E-01 -2.39673591E-02  0.00000000E+00 -3.25780629E-02
  1.01994977E-02  0.00000000E+00  0.00000000E+00  0.00000000E+00  6.43711519E-01
  0.00000000E+00  0.00000000E+00  4.82785094E-01  0.00000000E+00  0.00000000E+00
  0.00000000E+00 -1.80758833E-02  0.00000000E+00  0.00000000E+00  0.00000000E+00
  0.00000000E+00  0.00000000E+00  3.37846105E-02  0.00000000E+00  0.00000000E+00
  0.00000000E+00  0.00000000E+00  3.37846105E-02  0.00000000E+00  0.00000000E+00
 -9.16077341E-02  2.06920244E-01  7.41698919E-01  0.00000000E+00  0.00000000E+00
 -2.87052708E-01  0.00000000E+00  0.00000000E+00 -2.57457160E-01  9.67169033E-03
  0.00000000E+00  0.00000000E+00  7.20332280E-03  0.00000000E+00 -2.52414005E-01
 -6.35500378E-01  0.00000000E+00 -2.60659185E-02  7.17296814E-03 -2.52414005E-01
 -6.35500378E-01  0.00000000E+00  2.60659185E-02  7.17296814E-03  0.00000000E+00
  0.00000000E+00  0.00000000E+00  0.00000000E+00 -4.47183582E-01  0.00000000E+00
  0.00000000E+00 -5.18406807E-01  0.00000000E+00  0.00000000E+00  0.00000000E+00
 -1.46306464E-02  0.00000000E+00  0.00000000E+00  3.02698941E-01  9.58269496E-01
  0.00000000E+00  1.55192047E-02 -2.83854813E-02 -3.02698941E-01 -9.58269496E-01
  0.00000000E+00  1.55192047E-02  2.83854813E-02  0.00000000E+00  0.00000000E+00
  0.00000000E+00  0.00000000E+00  2.32345206E-01  0.00000000E+00  0.00000000E+00
  1.97300496E-01  0.00000000E+00  0.00000000E+00  0.00000000E+00  1.01712117E-01
  0.00000000E+00  0.00000000E+00 -9.07213254E-01  1.07381311E+00  0.00000000E+00
 -1.15618456E-02  1.02890597E-01  9.07213254E-01 -1.07381311E+00  0.00000000E+00
 -1.15618456E-02 -1.02890597E-01  2.90766410E-02 -1.79137914E-01  2.94411121E-01
  0.00000000E+00  0.00000000E+00  3.12173879E-01  0.00000000E+00  0.00000000E+00
 -2.51135098E-02 -1.34234022E-02  0.00000000E+00  0.00000000E+00 -9.03105256E-02
  0.00000000E+00  8.60319871E-01 -7.18116870E-01  0.00000000E+00  1.73376367E-01
 -2.53549007E-03  8.60319871E-01 -7.18116870E-01  0.00000000E+00 -1.73376367E-01
 -2.53549007E-03  4.56399393E-02 -1.19466760E-01 -5.04474395E-01  0.00000000E+00
  0.00000000E+00 -7.58811589E-01  0.00000000E+00  0.00000000E+00  1.16818057E+00
 -2.62443675E-02  0.00000000E+00  0.00000000E+00 -2.11912636E-02  0.00000000E+00
  4.05179119E-01  1.10167773E-01  0.00000000E+00 -2.12293111E-02  2.45422856E-01
  4.05179119E-01  1.10167773E-01  0.00000000E+00  2.12293111E-02  2.45422856E-01
  0.00000000E+00  0.00000000E+00  0.00000000E+00 -9.54793880E-01  0.00000000E+00
  0.00000000E+00  9.70034366E-01  0.00000000E+00  0.00000000E+00  0.00000000E+00
 -5.16981527E-03  0.00000000E+00  0.00000000E+00  0.00000000E+00  0.00000000E+00
  0.00000000E+00  8.02202686E-02  0.00000000E+00  0.00000000E+00  0.00000000E+00
  0.00000000E+00  8.02202686E-02  0.00000000E+00  0.00000000E+00  0.00000000E+00
  0.00000000E+00  0.00000000E+00  0.00000000E+00 -7.37478591E-01  0.00000000E+00
  0.00000000E+00  1.72169009E+00  0.00000000E+00  0.00000000E+00  0.00000000E+00
  8.51982551E-03  0.00000000E+00  0.00000000E+00 -3.19741325E-01 -8.28961896E-01
  0.00000000E+00  2.68501877E-01 -5.72692311E-02  3.19741325E-01  8.28961896E-01
  0.00000000E+00  2.68501877E-01  5.72692311E-02  0.00000000E+00  0.00000000E+00
  0.00000000E+00  0.00000000E+00  0.00000000E+00  0.00000000E+00  0.00000000E+00
  0.00000000E+00  0.00000000E+00  0.00000000E+00  0.00000000E+00  0.00000000E+00
  0.00000000E+00  1.62695066E-01  0.00000000E+00  0.00000000E+00  6.71176409E-01
  0.00000000E+00  0.00000000E+00  0.00000000E+00  0.00000000E+00 -6.71176409E-01
  0.00000000E+00  0.00000000E+00  3.43230696E-02 -6.98284632E-01  7.97796557E-01
  0.00000000E+00  0.00000000E+00 -1.82900097E-01  0.00000000E+00  0.00000000E+00
  6.63841779E-01  1.53151065E-01  0.00000000E+00  0.00000000E+00  3.74751655E-02
  0.00000000E+00  2.66384690E-01 -2.63121991E-01  0.00000000E+00 -2.99317531E-01
 -5.13425163E-01  2.66384690E-01 -2.63121991E-01  0.00000000E+00  2.99317531E-01
 -5.13425163E-01  0.00000000E+00  0.00000000E+00  0.00000000E+00  9.90821863E-02
  0.00000000E+00  0.00000000E+00 -6.86587408E-01  0.00000000E+00  0.00000000E+00
  0.00000000E+00 -1.92351389E-01  0.00000000E+00  0.00000000E+00  0.00000000E+00
  0.00000000E+00  0.00000000E+00  7.46668550E-01  0.00000000E+00  0.00000000E+00
  0.00000000E+00  0.00000000E+00  7.46668550E-01  0.00000000E+00  0.00000000E+00
  1.71151601E-03 -1.60883347E+00  2.72246352E+00  0.00000000E+00  0.00000000E+00
  6.84096867E-02  0.00000000E+00  0.00000000E+00 -9.65828109E-01 -1.48179002E-01
  0.00000000E+00  0.00000000E+00  1.12010750E-01  0.00000000E+00 -6.66516662E-01
 -3.82941469E-01  0.00000000E+00  3.21634016E-01  1.41273685E-01 -6.66516662E-01
 -3.82941469E-01  0.00000000E+00 -3.21634016E-01  1.41273685E-01  0.00000000E+00
  0.00000000E+00  0.00000000E+00  0.00000000E+00 -1.37114378E-01  0.00000000E+00
  0.00000000E+00  9.97114226E-01  0.00000000E+00  0.00000000E+00  0.00000000E+00
  2.87976696E-02  0.00000000E+00  0.00000000E+00 -4.08904413E-01 -1.15203964E-01
  0.00000000E+00 -4.24734050E-01 -6.71396288E-01  4.08904413E-01  1.15203964E-01
  0.00000000E+00 -4.24734050E-01  6.71396288E-01  0.00000000E+00  0.00000000E+00
  0.00000000E+00  0.00000000E+00  6.82101212E-01  0.00000000E+00  0.00000000E+00
  2.88579398E-01  0.00000000E+00  0.00000000E+00  0.00000000E+00  1.51057687E-01
  0.00000000E+00  0.00000000E+00 -1.78201294E-01 -4.28407033E-01  0.00000000E+00
  6.85743349E-01 -5.60532550E-01  1.78201294E-01  4.28407033E-01  0.00000000E+00
  6.85743349E-01  5.60532550E-01 -6.61060048E-02  3.79256476E-01  1.10449130E+00
  0.00000000E+00  0.00000000E+00 -5.25964206E-01  0.00000000E+00  0.00000000E+00
 -3.17919308E-01 -6.75636523E-02  0.00000000E+00  0.00000000E+00  2.19027302E-01
  0.00000000E+00 -4.24399467E-01 -2.45903109E-01  0.00000000E+00  7.98844963E-01
 -4.82395594E-01 -4.24399467E-01 -2.45903109E-01  0.00000000E+00 -7.98844963E-01
 -4.82395594E-01  0.00000000E+00  0.00000000E+00  0.00000000E+00  3.57648516E-02
  0.00000000E+00  0.00000000E+00 -2.86222036E-01  0.00000000E+00  0.00000000E+00
  0.00000000E+00  1.01954737E+00  0.00000000E+00  0.00000000E+00  0.00000000E+00
  0.00000000E+00  0.00000000E+00  3.69611518E-01  0.00000000E+00  0.00000000E+00
  0.00000000E+00  0.00000000E+00  3.69611518E-01  0.00000000E+00  0.00000000E+00
  0.00000000E+00  0.00000000E+00  0.00000000E+00  0.00000000E+00  0.00000000E+00
  0.00000000E+00  0.00000000E+00  0.00000000E+00  0.00000000E+00  0.00000000E+00
  0.00000000E+00  0.00000000E+00  0.00000000E+00  1.04607055E+00  0.00000000E+00
  0.00000000E+00 -3.56886149E-01  0.00000000E+00  0.00000000E+00  0.00000000E+00