 Entering Gaussian System, Link 0=g16
 Initial command:
 /APL/ISV/x86_64/gaussian/16/C.01/g16/l1.exe "/scr/yagi/water_cation.10008/Gau-10018.inp" -scrdir="/scr/yagi/water_cation.10008/"
 Entering Link 1 = /APL/ISV/x86_64/gaussian/16/C.01/g16/l1.exe PID=     10019.
  
 Copyright (c) 1988-2019, Gaussian, Inc.  All Rights Reserved.
  
 This is part of the Gaussian(R) 16 program.  It is based on
 the Gaussian(R) 09 system (copyright 2009, Gaussian, Inc.),
 the Gaussian(R) 03 system (copyright 2003, Gaussian, Inc.),
 the Gaussian(R) 98 system (copyright 1998, Gaussian, Inc.),
 the Gaussian(R) 94 system (copyright 1995, Gaussian, Inc.),
 the Gaussian 92(TM) system (copyright 1992, Gaussian, Inc.),
 the Gaussian 90(TM) system (copyright 1990, Gaussian, Inc.),
 the Gaussian 88(TM) system (copyright 1988, Gaussian, Inc.),
 the Gaussian 86(TM) system (copyright 1986, Carnegie Mellon
 University), and the Gaussian 82(TM) system (copyright 1983,
 Carnegie Mellon University). Gaussian is a federally registered
 trademark of Gaussian, Inc.
  
 This software contains proprietary and confidential information,
 including trade secrets, belonging to Gaussian, Inc.
  
 This software is provided under written license and may be
 used, copied, transmitted, or stored only in accord with that
 written license.
  
 The following legend is applicable only to US Government
 contracts under FAR:
  
                    RESTRICTED RIGHTS LEGEND
  
 Use, reproduction and disclosure by the US Government is
 subject to restrictions as set forth in subparagraphs (a)
 and (c) of the Commercial Computer Software - Restricted
 Rights clause in FAR 52.227-19.
  
 Gaussian, Inc.
 340 Quinnipiac St., Bldg. 40, Wallingford CT 06492
  
  
 ---------------------------------------------------------------
 Warning -- This program may not be used in any manner that
 competes with the business of Gaussian, Inc. or will provide
 assistance to any competitor of Gaussian, Inc.  The licensee
 of this program is prohibited from giving any competitor of
 Gaussian, Inc. access to this program.  By using this program,
 the user acknowledges that Gaussian, Inc. is engaged in the
 business of creating and licensing software in the field of
 computational chemistry and represents and warrants to the
 licensee that it is not a competitor of Gaussian, Inc. and that
 it will not use this program in any manner prohibited above.
 ---------------------------------------------------------------
  

 Cite this work as:
 Gaussian 16, Revision C.01,
 M. J. Frisch, G. W. Trucks, H. B. Schlegel, G. E. Scuseria, 
 M. A. Robb, J. R. Cheeseman, G. Scalmani, V. Barone, 
 G. A. Petersson, H. Nakatsuji, X. Li, M. Caricato, A. V. Marenich, 
 J. Bloino, B. G. Janesko, R. Gomperts, B. Mennucci, H. P. Hratchian, 
 J. V. Ortiz, A. F. Izmaylov, J. L. Sonnenberg, D. Williams-Young, 
 F. Ding, F. Lipparini, F. Egidi, J. Goings, B. Peng, A. Petrone, 
 T. Henderson, D. Ranasinghe, V. G. Zakrzewski, J. Gao, N. Rega, 
 G. Zheng, W. Liang, M. Hada, M. Ehara, K. Toyota, R. Fukuda, 
 J. Hasegawa, M. Ishida, T. Nakajima, Y. Honda, O. Kitao, H. Nakai, 
 T. Vreven, K. Throssell, J. A. Montgomery, Jr., J. E. Peralta, 
 F. Ogliaro, M. J. Bearpark, J. J. Heyd, E. N. Brothers, K. N. Kudin, 
 V. N. Staroverov, T. A. Keith, R. Kobayashi, J. Normand, 
 K. Raghavachari, A. P. Rendell, J. C. Burant, S. S. Iyengar, 
 J. Tomasi, M. Cossi, J. M. Millam, M. Klene, C. Adamo, R. Cammi, 
 J. W. Ochterski, R. L. Martin, K. Morokuma, O. Farkas, 
 J. B. Foresman, and D. J. Fox, Gaussian, Inc., Wallingford CT, 2019.
 
 ******************************************
 Gaussian 16:  ES64L-G16RevC.01  3-Jul-2019
                 8-Jun-2021 
 ******************************************
 %NprocShared=16
 Will use up to   16 processors via shared memory.
 %oldchk=water.chk
 %chk=water_cation.chk
 %mem=1gb
 Copying data from "water.chk" to current chk file "water_cation.chk"
 IOpt=  2 FromEx=T IUOpen= 4 IOptOp= 5 NList=   0 IFRang= 0 IUIn= 4 IUOut= 2.
 ------------------------------------
 #P B3LYP/cc-pVDZ opt geom=checkpoint
 ------------------------------------
 1/18=20,19=15,26=3,29=2,38=1/1,3;
 2/9=110,12=2,40=1/2;
 3/5=16,11=2,14=-4,25=1,30=1,71=1,74=-5/1,2,3;
 4//1;
 5/5=2,38=5/2;
 6/7=2,8=2,9=2,10=2,28=1/1;
 7//1,2,3,16;
 1/18=20,19=15,26=3/3(2);
 2/9=110/2;
 99//99;
 2/9=110/2;
 3/5=16,11=2,14=-2,25=1,30=1,71=1,74=-5/1,2,3;
 4/5=5,16=3,69=1/1;
 5/5=2,38=5/2;
 7//1,2,3,16;
 1/18=20,19=15,26=3/3(-5);
 2/9=110/2;
 6/7=2,8=2,9=2,10=2,19=2,28=1/1;
 99/9=1/99;
 Leave Link    1 at Tue Jun  8 12:35:45 2021, MaxMem=   134217728 cpu:               0.3 elap:               0.0
 (Enter /APL/ISV/x86_64/gaussian/16/C.01/g16/l101.exe)
 ----------------------
 B3LYP/cc-pVDZ water +1
 ----------------------
 Structure from the checkpoint file:  "water_cation.chk"
 Charge =  1 Multiplicity = 2
 Redundant internal coordinates found in file.  (old form).
 O,0,0.2148511034,0.2148511034,0.
 H,0,1.1776654036,0.1074834929,0.
 H,0,0.1074834929,1.1776654036,0.
 Recover connectivity data from disk.
 ITRead=  0  0  0
 MicOpt= -1 -1 -1
 NAtoms=      3 NQM=        3 NQMF=       0 NMMI=      0 NMMIF=      0
                NMic=       0 NMicF=      0.
                    Isotopes and Nuclear Properties:
 (Nuclear quadrupole moments (NQMom) in fm**2, nuclear magnetic moments (NMagM)
  in nuclear magnetons)

  Atom         1           2           3
 IAtWgt=          16           1           1
 AtmWgt=  15.9949146   1.0078250   1.0078250
 NucSpn=           0           1           1
 AtZEff=   5.6000000   1.0000000   1.0000000
 NQMom=    0.0000000   0.0000000   0.0000000
 NMagM=    0.0000000   2.7928460   2.7928460
 AtZNuc=   8.0000000   1.0000000   1.0000000
 Leave Link  101 at Tue Jun  8 12:35:46 2021, MaxMem=   134217728 cpu:               2.1 elap:               0.2
 (Enter /APL/ISV/x86_64/gaussian/16/C.01/g16/l103.exe)

 GradGradGradGradGradGradGradGradGradGradGradGradGradGradGradGradGradGrad
 Berny optimization.
 Initialization pass.
                           ----------------------------
                           !    Initial Parameters    !
                           ! (Angstroms and Degrees)  !
 --------------------------                            --------------------------
 ! Name  Definition              Value          Derivative Info.                !
 --------------------------------------------------------------------------------
 ! R1    R(1,2)                  0.9688         estimate D2E/DX2                !
 ! R2    R(1,3)                  0.9688         estimate D2E/DX2                !
 ! A1    A(2,1,3)              102.726          estimate D2E/DX2                !
 --------------------------------------------------------------------------------
 Trust Radius=3.00D-01 FncErr=1.00D-07 GrdErr=1.00D-06 EigMax=2.50D+02 EigMin=1.00D-04
 Number of steps in this run=     20 maximum allowed number of steps=    100.
 GradGradGradGradGradGradGradGradGradGradGradGradGradGradGradGradGradGrad

 Leave Link  103 at Tue Jun  8 12:35:46 2021, MaxMem=   134217728 cpu:               0.2 elap:               0.0
 (Enter /APL/ISV/x86_64/gaussian/16/C.01/g16/l202.exe)
                          Input orientation:                          
 ---------------------------------------------------------------------
 Center     Atomic      Atomic             Coordinates (Angstroms)
 Number     Number       Type             X           Y           Z
 ---------------------------------------------------------------------
      1          8           0        0.214851    0.214851    0.000000
      2          1           0        1.177665    0.107483   -0.000000
      3          1           0        0.107483    1.177665    0.000000
 ---------------------------------------------------------------------
                    Distance matrix (angstroms):
                    1          2          3
     1  O    0.000000
     2  H    0.968782   0.000000
     3  H    0.968782   1.513466   0.000000
 Stoichiometry    H2O(1+,2)
 Framework group  C2V[C2(O),SGV(H2)]
 Deg. of freedom     2
 Full point group                 C2V     NOp   4
 RotChk:  IX=0 Diff= 1.39D-16
 Largest Abelian subgroup         C2V     NOp   4
 Largest concise Abelian subgroup C2      NOp   2
                         Standard orientation:                         
 ---------------------------------------------------------------------
 Center     Atomic      Atomic             Coordinates (Angstroms)
 Number     Number       Type             X           Y           Z
 ---------------------------------------------------------------------
      1          8           0        0.000000   -0.000000    0.120978
      2          1           0       -0.000000    0.756733   -0.483914
      3          1           0       -0.000000   -0.756733   -0.483914
 ---------------------------------------------------------------------
 Rotational constants (GHZ):         771.5988288         437.8414213         279.3341199
 Leave Link  202 at Tue Jun  8 12:35:46 2021, MaxMem=   134217728 cpu:               0.2 elap:               0.0
 (Enter /APL/ISV/x86_64/gaussian/16/C.01/g16/l301.exe)
 Standard basis: CC-pVDZ (5D, 7F)
 Ernie: Thresh=  0.10000D-02 Tol=  0.10000D-05 Strict=F.
 Ernie:  2 primitive shells out of 32 were deleted.
 There are    12 symmetry adapted cartesian basis functions of A1  symmetry.
 There are     2 symmetry adapted cartesian basis functions of A2  symmetry.
 There are     4 symmetry adapted cartesian basis functions of B1  symmetry.
 There are     7 symmetry adapted cartesian basis functions of B2  symmetry.
 There are    11 symmetry adapted basis functions of A1  symmetry.
 There are     2 symmetry adapted basis functions of A2  symmetry.
 There are     4 symmetry adapted basis functions of B1  symmetry.
 There are     7 symmetry adapted basis functions of B2  symmetry.
    24 basis functions,    47 primitive gaussians,    25 cartesian basis functions
     5 alpha electrons        4 beta electrons
       nuclear repulsion energy         9.0893135050 Hartrees.
 IExCor=  402 DFT=T Ex+Corr=B3LYP ExCW=0 ScaHFX=  0.200000
 ScaDFX=  0.800000  0.720000  1.000000  0.810000 ScalE2=  1.000000  1.000000
 IRadAn=      5 IRanWt=     -1 IRanGd=            0 ICorTp=0 IEmpDi=  4
 NAtoms=    3 NActive=    3 NUniq=    2 SFac= 2.25D+00 NAtFMM=   60 NAOKFM=F Big=F
 Integral buffers will be    131072 words long.
 Raffenetti 2 integral format.
 Two-electron integral symmetry is turned on.
 Leave Link  301 at Tue Jun  8 12:35:46 2021, MaxMem=   134217728 cpu:               0.9 elap:               0.1
 (Enter /APL/ISV/x86_64/gaussian/16/C.01/g16/l302.exe)
 NPDir=0 NMtPBC=     1 NCelOv=     1 NCel=       1 NClECP=     1 NCelD=      1
         NCelK=      1 NCelE2=     1 NClLst=     1 CellRange=     0.0.
 One-electron integrals computed using PRISM.
 One-electron integral symmetry used in STVInt
 NBasis=    24 RedAO= T EigKep=  3.51D-02  NBF=    11     2     4     7
 NBsUse=    24 1.00D-06 EigRej= -1.00D+00 NBFU=    11     2     4     7
 Precomputing XC quadrature grid using
 IXCGrd= 4 IRadAn=           5 IRanWt=          -1 IRanGd=           0 AccXCQ= 0.00D+00.
 Generated NRdTot=       0 NPtTot=           0 NUsed=           0 NTot=          32
 NSgBfM=    25    25    25    25    25 MxSgAt=     3 MxSgA2=     3.
 Leave Link  302 at Tue Jun  8 12:35:46 2021, MaxMem=   134217728 cpu:               1.6 elap:               0.1
 (Enter /APL/ISV/x86_64/gaussian/16/C.01/g16/l303.exe)
 DipDrv:  MaxL=1.
 Leave Link  303 at Tue Jun  8 12:35:46 2021, MaxMem=   134217728 cpu:               0.4 elap:               0.1
 (Enter /APL/ISV/x86_64/gaussian/16/C.01/g16/l401.exe)
 ExpMin= 1.22D-01 ExpMax= 1.17D+04 ExpMxC= 4.01D+02 IAcc=3 IRadAn=         5 AccDes= 0.00D+00
 Harris functional with IExCor=  402 and IRadAn=       5 diagonalized for initial guess.
 HarFok:  IExCor=  402 AccDes= 0.00D+00 IRadAn=         5 IDoV= 1 UseB2=F ITyADJ=14
 ICtDFT=  3500011 ScaDFX=  1.000000  1.000000  1.000000  1.000000
 FoFCou: FMM=F IPFlag=           0 FMFlag=      100000 FMFlg1=           0
         NFxFlg=           0 DoJE=T BraDBF=F KetDBF=T FulRan=T
         wScrn=  0.000000 ICntrl=       500 IOpCl=  0 I1Cent=   200000004 NGrid=           0
         NMat0=    1 NMatS0=      1 NMatT0=    0 NMatD0=    1 NMtDS0=    0 NMtDT0=    0
 Petite list used in FoFCou.
 Harris En= -76.0653385293215    
 JPrj=0 DoOrth=F DoCkMO=F.
 Initial guess orbital symmetries:
 Alpha Orbitals:
       Occupied  (A1) (A1) (B2) (A1) (B1)
       Virtual   (A1) (B2) (B2) (A1) (B1) (A1) (B2) (A1) (A2) (B1)
                 (A1) (B2) (B2) (A1) (B1) (A2) (A1) (A1) (B2)
 Beta  Orbitals:
       Occupied  (A1) (A1) (B2) (A1)
       Virtual   (B1) (A1) (B2) (B2) (A1) (B1) (A1) (B2) (A1) (A2)
                 (B1) (A1) (B2) (B2) (A1) (B1) (A2) (A1) (A1) (B2)
 The electronic state of the initial guess is 2-B1.
 Initial guess <Sx>= 0.0000 <Sy>= 0.0000 <Sz>= 0.5000 <S**2>= 0.7500 S= 0.5000
 Leave Link  401 at Tue Jun  8 12:35:46 2021, MaxMem=   134217728 cpu:               1.8 elap:               0.1
 (Enter /APL/ISV/x86_64/gaussian/16/C.01/g16/l502.exe)
 Keep R1 and R2 ints in memory in symmetry-blocked form, NReq=13860511.
 FoFCou: FMM=F IPFlag=           0 FMFlag=           0 FMFlg1=           0
         NFxFlg=           0 DoJE=F BraDBF=F KetDBF=F FulRan=T
         wScrn=  0.000000 ICntrl=       600 IOpCl=  0 I1Cent=           0 NGrid=           0
         NMat0=    1 NMatS0=    300 NMatT0=    0 NMatD0=    1 NMtDS0=    0 NMtDT0=    0
 Petite list used in FoFCou.
 UHF open shell SCF:
 Using DIIS extrapolation, IDIIS=  1040.
 NGot=   134217728 LenX=   134189263 LenY=   134188197
 Requested convergence on RMS density matrix=1.00D-08 within 128 cycles.
 Requested convergence on MAX density matrix=1.00D-06.
 Requested convergence on             energy=1.00D-06.
 No special actions if energy rises.
 Integral accuracy reduced to 1.0D-05 until final iterations.

 Cycle   1  Pass 0  IDiag  1:
 E= -75.9602470237867    
 DIIS: error= 2.51D-02 at cycle   1 NSaved=   1.
 NSaved= 1 IEnMin= 1 EnMin= -75.9602470237867     IErMin= 1 ErrMin= 2.51D-02
 ErrMax= 2.51D-02  0.00D+00 EMaxC= 1.00D-01 BMatC= 3.97D-02 BMatP= 3.97D-02
 IDIUse=3 WtCom= 7.49D-01 WtEn= 2.51D-01
 Coeff-Com:  0.100D+01
 Coeff-En:   0.100D+01
 Coeff:      0.100D+01
 Gap=     0.600 Goal=   None    Shift=    0.000
 Gap=     0.221 Goal=   None    Shift=    0.000
 GapD=    0.221 DampG=1.000 DampE=0.500 DampFc=0.5000 IDamp=-1.
 Damping current iteration by 5.00D-01
 RMSDP=4.00D-03 MaxDP=5.74D-02              OVMax= 4.51D-02

 Cycle   2  Pass 0  IDiag  1:
 E= -75.9645481376455     Delta-E=       -0.004301113859 Rises=F Damp=T
 DIIS: error= 9.61D-03 at cycle   2 NSaved=   2.
 NSaved= 2 IEnMin= 2 EnMin= -75.9645481376455     IErMin= 2 ErrMin= 9.61D-03
 ErrMax= 9.61D-03  0.00D+00 EMaxC= 1.00D-01 BMatC= 6.93D-03 BMatP= 3.97D-02
 IDIUse=3 WtCom= 9.04D-01 WtEn= 9.61D-02
 Coeff-Com: -0.382D+00 0.138D+01
 Coeff-En:   0.000D+00 0.100D+01
 Coeff:     -0.345D+00 0.134D+01
 Gap=     0.579 Goal=   None    Shift=    0.000
 Gap=     0.227 Goal=   None    Shift=    0.000
 RMSDP=1.66D-03 MaxDP=1.67D-02 DE=-4.30D-03 OVMax= 1.93D-02

 Cycle   3  Pass 0  IDiag  1:
 E= -75.9685836104764     Delta-E=       -0.004035472831 Rises=F Damp=F
 DIIS: error= 4.15D-03 at cycle   3 NSaved=   3.
 NSaved= 3 IEnMin= 3 EnMin= -75.9685836104764     IErMin= 3 ErrMin= 4.15D-03
 ErrMax= 4.15D-03  0.00D+00 EMaxC= 1.00D-01 BMatC= 1.50D-03 BMatP= 6.93D-03
 IDIUse=3 WtCom= 9.58D-01 WtEn= 4.15D-02
 Coeff-Com: -0.236D+00 0.524D+00 0.711D+00
 Coeff-En:   0.000D+00 0.000D+00 0.100D+01
 Coeff:     -0.226D+00 0.503D+00 0.723D+00
 Gap=     0.589 Goal=   None    Shift=    0.000
 Gap=     0.229 Goal=   None    Shift=    0.000
 RMSDP=5.59D-04 MaxDP=6.87D-03 DE=-4.04D-03 OVMax= 7.60D-03

 Cycle   4  Pass 0  IDiag  1:
 E= -75.9688694457330     Delta-E=       -0.000285835257 Rises=F Damp=F
 DIIS: error= 8.60D-04 at cycle   4 NSaved=   4.
 NSaved= 4 IEnMin= 4 EnMin= -75.9688694457330     IErMin= 4 ErrMin= 8.60D-04
 ErrMax= 8.60D-04  0.00D+00 EMaxC= 1.00D-01 BMatC= 5.51D-05 BMatP= 1.50D-03
 IDIUse=3 WtCom= 9.91D-01 WtEn= 8.60D-03
 Coeff-Com:  0.353D-03-0.336D-01 0.133D+00 0.901D+00
 Coeff-En:   0.000D+00 0.000D+00 0.000D+00 0.100D+01
 Coeff:      0.350D-03-0.333D-01 0.132D+00 0.901D+00
 Gap=     0.587 Goal=   None    Shift=    0.000
 Gap=     0.229 Goal=   None    Shift=    0.000
 RMSDP=1.16D-04 MaxDP=1.78D-03 DE=-2.86D-04 OVMax= 2.06D-03

 Cycle   5  Pass 0  IDiag  1:
 E= -75.9688829837858     Delta-E=       -0.000013538053 Rises=F Damp=F
 DIIS: error= 1.23D-04 at cycle   5 NSaved=   5.
 NSaved= 5 IEnMin= 5 EnMin= -75.9688829837858     IErMin= 5 ErrMin= 1.23D-04
 ErrMax= 1.23D-04  0.00D+00 EMaxC= 1.00D-01 BMatC= 1.32D-06 BMatP= 5.51D-05
 IDIUse=3 WtCom= 9.99D-01 WtEn= 1.23D-03
 Coeff-Com:  0.785D-02-0.940D-02-0.658D-01-0.234D+00 0.130D+01
 Coeff-En:   0.000D+00 0.000D+00 0.000D+00 0.000D+00 0.100D+01
 Coeff:      0.784D-02-0.939D-02-0.657D-01-0.234D+00 0.130D+01
 Gap=     0.587 Goal=   None    Shift=    0.000
 Gap=     0.229 Goal=   None    Shift=    0.000
 RMSDP=4.17D-05 MaxDP=4.65D-04 DE=-1.35D-05 OVMax= 5.43D-04

 Cycle   6  Pass 0  IDiag  1:
 E= -75.9688838116962     Delta-E=       -0.000000827910 Rises=F Damp=F
 DIIS: error= 1.72D-05 at cycle   6 NSaved=   6.
 NSaved= 6 IEnMin= 6 EnMin= -75.9688838116962     IErMin= 6 ErrMin= 1.72D-05
 ErrMax= 1.72D-05  0.00D+00 EMaxC= 1.00D-01 BMatC= 2.37D-08 BMatP= 1.32D-06
 IDIUse=1 WtCom= 1.00D+00 WtEn= 0.00D+00
 Coeff-Com: -0.771D-03 0.196D-02 0.351D-02 0.227D-02-0.182D+00 0.118D+01
 Coeff:     -0.771D-03 0.196D-02 0.351D-02 0.227D-02-0.182D+00 0.118D+01
 Gap=     0.587 Goal=   None    Shift=    0.000
 Gap=     0.229 Goal=   None    Shift=    0.000
 RMSDP=6.67D-06 MaxDP=6.80D-05 DE=-8.28D-07 OVMax= 8.78D-05

 Initial convergence to 1.0D-05 achieved.  Increase integral accuracy.
 Cycle   7  Pass 1  IDiag  1:
 E= -75.9688839513378     Delta-E=       -0.000000139642 Rises=F Damp=F
 DIIS: error= 2.00D-06 at cycle   1 NSaved=   1.
 NSaved= 1 IEnMin= 1 EnMin= -75.9688839513378     IErMin= 1 ErrMin= 2.00D-06
 ErrMax= 2.00D-06  0.00D+00 EMaxC= 1.00D-01 BMatC= 2.53D-10 BMatP= 2.53D-10
 IDIUse=1 WtCom= 1.00D+00 WtEn= 0.00D+00
 Coeff-Com:  0.100D+01
 Coeff:      0.100D+01
 Gap=     0.587 Goal=   None    Shift=    0.000
 Gap=     0.229 Goal=   None    Shift=    0.000
 RMSDP=6.67D-06 MaxDP=6.80D-05 DE=-1.40D-07 OVMax= 5.65D-06

 Cycle   8  Pass 1  IDiag  1:
 E= -75.9688839514264     Delta-E=       -0.000000000089 Rises=F Damp=F
 DIIS: error= 1.02D-06 at cycle   2 NSaved=   2.
 NSaved= 2 IEnMin= 2 EnMin= -75.9688839514264     IErMin= 2 ErrMin= 1.02D-06
 ErrMax= 1.02D-06  0.00D+00 EMaxC= 1.00D-01 BMatC= 8.37D-11 BMatP= 2.53D-10
 IDIUse=1 WtCom= 1.00D+00 WtEn= 0.00D+00
 Coeff-Com:  0.278D+00 0.722D+00
 Coeff:      0.278D+00 0.722D+00
 Gap=     0.587 Goal=   None    Shift=    0.000
 Gap=     0.229 Goal=   None    Shift=    0.000
 RMSDP=1.70D-07 MaxDP=2.22D-06 DE=-8.86D-11 OVMax= 2.53D-06

 Cycle   9  Pass 1  IDiag  1:
 E= -75.9688839514433     Delta-E=       -0.000000000017 Rises=F Damp=F
 DIIS: error= 5.51D-07 at cycle   3 NSaved=   3.
 NSaved= 3 IEnMin= 3 EnMin= -75.9688839514433     IErMin= 3 ErrMin= 5.51D-07
 ErrMax= 5.51D-07  0.00D+00 EMaxC= 1.00D-01 BMatC= 2.13D-11 BMatP= 8.37D-11
 IDIUse=1 WtCom= 1.00D+00 WtEn= 0.00D+00
 Coeff-Com: -0.143D+00 0.279D+00 0.864D+00
 Coeff:     -0.143D+00 0.279D+00 0.864D+00
 Gap=     0.587 Goal=   None    Shift=    0.000
 Gap=     0.229 Goal=   None    Shift=    0.000
 RMSDP=8.96D-08 MaxDP=1.06D-06 DE=-1.69D-11 OVMax= 1.32D-06

 Cycle  10  Pass 1  IDiag  1:
 E= -75.9688839514492     Delta-E=       -0.000000000006 Rises=F Damp=F
 DIIS: error= 7.86D-08 at cycle   4 NSaved=   4.
 NSaved= 4 IEnMin= 4 EnMin= -75.9688839514492     IErMin= 4 ErrMin= 7.86D-08
 ErrMax= 7.86D-08  0.00D+00 EMaxC= 1.00D-01 BMatC= 3.82D-13 BMatP= 2.13D-11
 IDIUse=1 WtCom= 1.00D+00 WtEn= 0.00D+00
 Coeff-Com: -0.223D-02-0.676D-01-0.861D-01 0.116D+01
 Coeff:     -0.223D-02-0.676D-01-0.861D-01 0.116D+01
 Gap=     0.587 Goal=   None    Shift=    0.000
 Gap=     0.229 Goal=   None    Shift=    0.000
 RMSDP=2.18D-08 MaxDP=2.29D-07 DE=-5.94D-12 OVMax= 2.65D-07

 Cycle  11  Pass 1  IDiag  1:
 E= -75.9688839514494     Delta-E=       -0.000000000000 Rises=F Damp=F
 DIIS: error= 1.59D-08 at cycle   5 NSaved=   5.
 NSaved= 5 IEnMin= 5 EnMin= -75.9688839514494     IErMin= 5 ErrMin= 1.59D-08
 ErrMax= 1.59D-08  0.00D+00 EMaxC= 1.00D-01 BMatC= 1.81D-14 BMatP= 3.82D-13
 IDIUse=1 WtCom= 1.00D+00 WtEn= 0.00D+00
 Coeff-Com:  0.941D-02-0.225D-01-0.589D-01 0.966D-01 0.975D+00
 Coeff:      0.941D-02-0.225D-01-0.589D-01 0.966D-01 0.975D+00
 Gap=     0.587 Goal=   None    Shift=    0.000
 Gap=     0.229 Goal=   None    Shift=    0.000
 RMSDP=3.35D-09 MaxDP=3.66D-08 DE=-2.27D-13 OVMax= 4.42D-08

 SCF Done:  E(UB3LYP) =  -75.9688839514     A.U. after   11 cycles
            NFock= 11  Conv=0.34D-08     -V/T= 2.0041
 <Sx>= 0.0000 <Sy>= 0.0000 <Sz>= 0.5000 <S**2>= 0.7523 S= 0.5011
 <L.S>= 0.000000000000E+00
 KE= 7.566226493445D+01 PE=-1.936045553028D+02 EE= 3.288409291191D+01
 Annihilation of the first spin contaminant:
 S**2 before annihilation     0.7523,   after     0.7500
 Leave Link  502 at Tue Jun  8 12:35:46 2021, MaxMem=   134217728 cpu:               2.6 elap:               0.2
 (Enter /APL/ISV/x86_64/gaussian/16/C.01/g16/l601.exe)
 Copying SCF densities to generalized density rwf, IOpCl= 1 IROHF=0.

 **********************************************************************

            Population analysis using the SCF Density.

 **********************************************************************

 Orbital symmetries:
 Alpha Orbitals:
       Occupied  (A1) (A1) (B2) (B1) (A1)
       Virtual   (A1) (B2) (B2) (A1) (B1) (A1) (B2) (A1) (A2) (B1)
                 (A1) (B2) (B2) (A1) (B1) (A2) (A1) (A1) (B2)
 Beta  Orbitals:
       Occupied  (A1) (A1) (B2) (A1)
       Virtual   (B1) (A1) (B2) (B2) (A1) (A1) (B1) (B2) (A1) (A2)
                 (B1) (A1) (B2) (B2) (A1) (B1) (A2) (A1) (A1) (B2)
 The electronic state is 2-B1.
 Alpha  occ. eigenvalues --  -19.71052  -1.53509  -1.00029  -0.87896  -0.87320
 Alpha virt. eigenvalues --   -0.28585  -0.20600   0.17777   0.22422   0.42471
 Alpha virt. eigenvalues --    0.47251   0.59094   0.77933   0.80779   0.99099
 Alpha virt. eigenvalues --    1.12338   1.27772   1.65743   1.67131   2.37562
 Alpha virt. eigenvalues --    2.40294   2.63029   2.92096   3.25434
  Beta  occ. eigenvalues --  -19.68304  -1.46380  -0.97833  -0.84256
  Beta virt. eigenvalues --   -0.61337  -0.27526  -0.20002   0.17677   0.23245
  Beta virt. eigenvalues --    0.48632   0.52120   0.60264   0.78693   0.82392
  Beta virt. eigenvalues --    1.01007   1.16609   1.27462   1.66374   1.70910
  Beta virt. eigenvalues --    2.45130   2.47962   2.65074   2.99173   3.26701
          Condensed to atoms (all electrons):
               1          2          3
     1  O    6.899354   0.335244   0.335244
     2  H    0.335244   0.388139  -0.008305
     3  H    0.335244  -0.008305   0.388139
          Atomic-Atomic Spin Densities.
               1          2          3
     1  O    1.044163   0.000942   0.000942
     2  H    0.000942  -0.025271   0.001305
     3  H    0.000942   0.001305  -0.025271
 Mulliken charges and spin densities:
               1          2
     1  O    0.430157   1.046047
     2  H    0.284921  -0.023023
     3  H    0.284921  -0.023023
 Sum of Mulliken charges =   1.00000   1.00000
 Mulliken charges and spin densities with hydrogens summed into heavy atoms:
               1          2
     1  O    1.000000   1.000000
 Electronic spatial extent (au):  <R**2>=             14.4017
 Charge=              1.0000 electrons
 Dipole moment (field-independent basis, Debye):
    X=             -0.0000    Y=              0.0000    Z=             -2.2167  Tot=              2.2167
 Quadrupole moment (field-independent basis, Debye-Ang):
   XX=             -4.6610   YY=             -2.2049   ZZ=             -4.1918
   XY=              0.0000   XZ=              0.0000   YZ=             -0.0000
 Traceless Quadrupole moment (field-independent basis, Debye-Ang):
   XX=             -0.9751   YY=              1.4810   ZZ=             -0.5059
   XY=              0.0000   XZ=              0.0000   YZ=             -0.0000
 Octapole moment (field-independent basis, Debye-Ang**2):
  XXX=              0.0000  YYY=              0.0000  ZZZ=             -1.4436  XYY=             -0.0000
  XXY=              0.0000  XXZ=             -0.2175  XZZ=             -0.0000  YZZ=              0.0000
  YYZ=             -1.7551  XYZ=             -0.0000
 Hexadecapole moment (field-independent basis, Debye-Ang**3):
 XXXX=             -2.5247 YYYY=             -2.9067 ZZZZ=             -4.1401 XXXY=             -0.0000
 XXXZ=             -0.0000 YYYX=              0.0000 YYYZ=             -0.0000 ZZZX=             -0.0000
 ZZZY=             -0.0000 XXYY=             -1.2532 XXZZ=             -1.1652 YYZZ=             -0.6917
 XXYZ=              0.0000 YYXZ=              0.0000 ZZXY=              0.0000
 N-N= 9.089313505034D+00 E-N=-1.936045552521D+02  KE= 7.566226493445D+01
 Symmetry A1   KE= 6.883565206472D+01
 Symmetry A2   KE= 1.386259725884D-34
 Symmetry B1   KE= 2.715585699524D+00
 Symmetry B2   KE= 4.111027170208D+00
 Symmetry A1   SP= 3.208754839530D-15
 Symmetry A2   SP= 6.018531076210D-35
 Symmetry B1   SP= 1.000000000000D+00
 Symmetry B2   SP= 7.900801244646D-16
                          Isotropic Fermi Contact Couplings
        Atom                 a.u.       MegaHertz       Gauss      10(-4) cm-1
     1  O(17)              0.20176    -122.30406     -43.64113     -40.79624
     2  H(1)              -0.01340     -59.88455     -21.36830     -19.97534
     3  H(1)              -0.01340     -59.88455     -21.36830     -19.97534
 --------------------------------------------------------
       Center         ----  Spin Dipole Couplings  ----
                      3XX-RR        3YY-RR        3ZZ-RR
 --------------------------------------------------------
     1   Atom        3.996517     -1.970870     -2.025647
     2   Atom       -0.047044      0.063305     -0.016260
     3   Atom       -0.047044      0.063305     -0.016260
 --------------------------------------------------------
                        XY            XZ            YZ
 --------------------------------------------------------
     1   Atom       -0.000000     -0.000000     -0.000000
     2   Atom       -0.000000     -0.000000     -0.152589
     3   Atom        0.000000      0.000000      0.152589
 --------------------------------------------------------


 ---------------------------------------------------------------------------------
              Anisotropic Spin Dipole Couplings in Principal Axis System
 ---------------------------------------------------------------------------------

       Atom             a.u.   MegaHertz   Gauss  10(-4) cm-1        Axes

              Baa    -2.0256   146.574    52.301    48.892  0.0000  0.0000  1.0000
     1 O(17)  Bbb    -1.9709   142.611    50.887    47.570  0.0000  1.0000 -0.0000
              Bcc     3.9965  -289.185  -103.188   -96.462  1.0000 -0.0000 -0.0000
 
              Baa    -0.1342   -71.585   -25.543   -23.878  0.0000  0.6114  0.7913
     2 H(1)   Bbb    -0.0470   -25.101    -8.957    -8.373  1.0000 -0.0000  0.0000
              Bcc     0.1812    96.686    34.500    32.251  0.0000  0.7913 -0.6114
 
              Baa    -0.1342   -71.585   -25.543   -23.878 -0.0000 -0.6114  0.7913
     3 H(1)   Bbb    -0.0470   -25.101    -8.957    -8.373  1.0000 -0.0000  0.0000
              Bcc     0.1812    96.686    34.500    32.251  0.0000  0.7913  0.6114
 

 ---------------------------------------------------------------------------------

 No NMR shielding tensors so no spin-rotation constants.
 Leave Link  601 at Tue Jun  8 12:35:46 2021, MaxMem=   134217728 cpu:               2.2 elap:               0.2
 (Enter /APL/ISV/x86_64/gaussian/16/C.01/g16/l701.exe)
 ... and contract with generalized density number  0.
 Compute integral first derivatives.
 Leave Link  701 at Tue Jun  8 12:35:47 2021, MaxMem=   134217728 cpu:               1.4 elap:               0.1
 (Enter /APL/ISV/x86_64/gaussian/16/C.01/g16/l702.exe)
 L702 exits ... SP integral derivatives will be done elsewhere.
 Leave Link  702 at Tue Jun  8 12:35:47 2021, MaxMem=   134217728 cpu:               0.4 elap:               0.0
 (Enter /APL/ISV/x86_64/gaussian/16/C.01/g16/l703.exe)
 Integral derivatives from FoFJK, PRISM(SPDF).
 Compute integral first derivatives, UseDBF=F ICtDFT=           0.
 Calling FoFJK, ICntrl=      2127 FMM=F ISym2X=1 I1Cent= 0 IOpClX= 1 NMat=1 NMatS=1 NMatT=0.
 FoFJK:  IHMeth= 1 ICntrl=    2127 DoSepK=F KAlg= 0 I1Cent=           0 FoldK=F
 IRaf=         0 NMat=       1 IRICut=       1 DoRegI=T DoRafI=F ISym2E= 1 IDoP0=0 IntGTp=1.
 FoFCou: FMM=F IPFlag=           0 FMFlag=      100000 FMFlg1=         800
         NFxFlg=           0 DoJE=F BraDBF=F KetDBF=F FulRan=T
         wScrn=  0.000000 ICntrl=      2127 IOpCl=  1 I1Cent=           0 NGrid=           0
         NMat0=    1 NMatS0=      1 NMatT0=    0 NMatD0=    1 NMtDS0=    0 NMtDT0=    0
 Petite list used in FoFCou.
 Leave Link  703 at Tue Jun  8 12:35:47 2021, MaxMem=   134217728 cpu:               2.0 elap:               0.1
 (Enter /APL/ISV/x86_64/gaussian/16/C.01/g16/l716.exe)
 Dipole        =-5.23979945D-17 2.22044605D-16-8.72102787D-01
 ***** Axes restored to original set *****
 -------------------------------------------------------------------
 Center     Atomic                   Forces (Hartrees/Bohr)
 Number     Number              X              Y              Z
 -------------------------------------------------------------------
      1        8          -0.025849188   -0.025849188    0.000000000
      2        1           0.039880702   -0.014031514   -0.000000000
      3        1          -0.014031514    0.039880702   -0.000000000
 -------------------------------------------------------------------
 Cartesian Forces:  Max     0.039880702 RMS     0.023359672
 Leave Link  716 at Tue Jun  8 12:35:47 2021, MaxMem=   134217728 cpu:               0.5 elap:               0.1
 (Enter /APL/ISV/x86_64/gaussian/16/C.01/g16/l103.exe)

 GradGradGradGradGradGradGradGradGradGradGradGradGradGradGradGradGradGrad
 Berny optimization.
 FormGI is forming the generalized inverse of G from B-inverse, IUseBI=4.
 Internal  Forces:  Max     0.041190100 RMS     0.035106201
 Search for a local minimum.
 Step number   1 out of a maximum of   20
 All quantities printed in internal units (Hartrees-Bohrs-Radians)
 RMS Force = .35106D-01 SwitMx=.10000D-02 MixMth= 1
 Mixed Optimization -- RFO/linear search
 Second derivative matrix not updated -- first step.
 The second derivative matrix:
                          R1        R2        A1
           R1           0.53627
           R2           0.00000   0.53627
           A1           0.00000   0.00000   0.16000
 ITU=  0
     Eigenvalues ---    0.16000   0.53627   0.53627
 RFO step:  Lambda=-8.04362332D-03 EMin= 1.60000000D-01
 Linear search not attempted -- first point.
 Iteration  1 RMS(Cart)=  0.09752034 RMS(Int)=  0.00310049
 Iteration  2 RMS(Cart)=  0.00221271 RMS(Int)=  0.00000457
 Iteration  3 RMS(Cart)=  0.00000517 RMS(Int)=  0.00000000
 Iteration  4 RMS(Cart)=  0.00000000 RMS(Int)=  0.00000000
 ITry= 1 IFail=0 DXMaxC= 9.15D-02 DCOld= 1.00D+10 DXMaxT= 3.00D-01 DXLimC= 3.00D+00 Rises=F
 ClnCor:  largest displacement from symmetrization is 2.00D-15 for atom     3.
 Variable       Old X    -DE/DX   Delta X   Delta X   Delta X     New X
                                 (Linear)    (Quad)   (Total)
    R1        1.83073   0.04119   0.00000   0.07567   0.07567   1.90641
    R2        1.83073   0.04119   0.00000   0.07567   0.07567   1.90641
    A1        1.79291   0.01744   0.00000   0.10377   0.10377   1.89668
         Item               Value     Threshold  Converged?
 Maximum Force            0.041190     0.000450     NO 
 RMS     Force            0.035106     0.000300     NO 
 Maximum Displacement     0.091476     0.001800     NO 
 RMS     Displacement     0.098168     0.001200     NO 
 Predicted change in Energy=-4.111184D-03
 Lowest energy point so far.  Saving SCF results.
 GradGradGradGradGradGradGradGradGradGradGradGradGradGradGradGradGradGrad

 Leave Link  103 at Tue Jun  8 12:35:47 2021, MaxMem=   134217728 cpu:               0.2 elap:               0.0
 (Enter /APL/ISV/x86_64/gaussian/16/C.01/g16/l202.exe)
                          Input orientation:                          
 ---------------------------------------------------------------------
 Center     Atomic      Atomic             Coordinates (Angstroms)
 Number     Number       Type             X           Y           Z
 ---------------------------------------------------------------------
      1          8           0        0.222729    0.222729    0.000000
      2          1           0        1.218194    0.059076   -0.000000
      3          1           0        0.059076    1.218194    0.000000
 ---------------------------------------------------------------------
                    Distance matrix (angstroms):
                    1          2          3
     1  O    0.000000
     2  H    1.008827   0.000000
     3  H    1.008827   1.639240   0.000000
 Stoichiometry    H2O(1+,2)
 Framework group  C2V[C2(O),SGV(H2)]
 Deg. of freedom     2
 Full point group                 C2V     NOp   4
 RotChk:  IX=0 Diff= 1.07D-15
 Largest Abelian subgroup         C2V     NOp   4
 Largest concise Abelian subgroup C2      NOp   2
                         Standard orientation:                         
 ---------------------------------------------------------------------
 Center     Atomic      Atomic             Coordinates (Angstroms)
 Number     Number       Type             X           Y           Z
 ---------------------------------------------------------------------
      1          8           0       -0.000000   -0.000000    0.117636
      2          1           0       -0.000000    0.819620   -0.470544
      3          1           0       -0.000000   -0.819620   -0.470544
 ---------------------------------------------------------------------
 Rotational constants (GHZ):         816.0698713         373.2302100         256.1018318
 Leave Link  202 at Tue Jun  8 12:35:47 2021, MaxMem=   134217728 cpu:               0.2 elap:               0.0
 (Enter /APL/ISV/x86_64/gaussian/16/C.01/g16/l301.exe)
 Standard basis: CC-pVDZ (5D, 7F)
 Ernie: Thresh=  0.10000D-02 Tol=  0.10000D-05 Strict=F.
 Ernie:  2 primitive shells out of 32 were deleted.
 There are    12 symmetry adapted cartesian basis functions of A1  symmetry.
 There are     2 symmetry adapted cartesian basis functions of A2  symmetry.
 There are     4 symmetry adapted cartesian basis functions of B1  symmetry.
 There are     7 symmetry adapted cartesian basis functions of B2  symmetry.
 There are    11 symmetry adapted basis functions of A1  symmetry.
 There are     2 symmetry adapted basis functions of A2  symmetry.
 There are     4 symmetry adapted basis functions of B1  symmetry.
 There are     7 symmetry adapted basis functions of B2  symmetry.
    24 basis functions,    47 primitive gaussians,    25 cartesian basis functions
     5 alpha electrons        4 beta electrons
       nuclear repulsion energy         8.7155681964 Hartrees.
 IExCor=  402 DFT=T Ex+Corr=B3LYP ExCW=0 ScaHFX=  0.200000
 ScaDFX=  0.800000  0.720000  1.000000  0.810000 ScalE2=  1.000000  1.000000
 IRadAn=      5 IRanWt=     -1 IRanGd=            0 ICorTp=0 IEmpDi=  4
 NAtoms=    3 NActive=    3 NUniq=    2 SFac= 2.25D+00 NAtFMM=   60 NAOKFM=F Big=F
 Integral buffers will be    131072 words long.
 Raffenetti 2 integral format.
 Two-electron integral symmetry is turned on.
 Leave Link  301 at Tue Jun  8 12:35:47 2021, MaxMem=   134217728 cpu:               0.9 elap:               0.1
 (Enter /APL/ISV/x86_64/gaussian/16/C.01/g16/l302.exe)
 NPDir=0 NMtPBC=     1 NCelOv=     1 NCel=       1 NClECP=     1 NCelD=      1
         NCelK=      1 NCelE2=     1 NClLst=     1 CellRange=     0.0.
 One-electron integrals computed using PRISM.
 One-electron integral symmetry used in STVInt
 NBasis=    24 RedAO= T EigKep=  3.96D-02  NBF=    11     2     4     7
 NBsUse=    24 1.00D-06 EigRej= -1.00D+00 NBFU=    11     2     4     7
 Precomputing XC quadrature grid using
 IXCGrd= 4 IRadAn=           5 IRanWt=          -1 IRanGd=           0 AccXCQ= 0.00D+00.
 Generated NRdTot=       0 NPtTot=           0 NUsed=           0 NTot=          32
 NSgBfM=    25    25    25    25    25 MxSgAt=     3 MxSgA2=     3.
 Leave Link  302 at Tue Jun  8 12:35:47 2021, MaxMem=   134217728 cpu:               1.5 elap:               0.1
 (Enter /APL/ISV/x86_64/gaussian/16/C.01/g16/l303.exe)
 DipDrv:  MaxL=1.
 Leave Link  303 at Tue Jun  8 12:35:47 2021, MaxMem=   134217728 cpu:               0.4 elap:               0.0
 (Enter /APL/ISV/x86_64/gaussian/16/C.01/g16/l401.exe)
 Initial guess from the checkpoint file:  "water_cation.chk"
 B after Tr=    -0.000000   -0.000000   -0.000000
         Rot=    1.000000   -0.000000   -0.000000    0.000000 Ang=   0.00 deg.
 Guess basis will be translated and rotated to current coordinates.
 JPrj=2 DoOrth=T DoCkMO=T.
 Initial guess orbital symmetries:
 Alpha Orbitals:
       Occupied  (A1) (A1) (B2) (B1) (A1)
       Virtual   (A1) (B2) (B2) (A1) (B1) (A1) (B2) (A1) (A2) (B1)
                 (A1) (B2) (B2) (A1) (B1) (A2) (A1) (A1) (B2)
 Beta  Orbitals:
       Occupied  (A1) (A1) (B2) (A1)
       Virtual   (B1) (A1) (B2) (B2) (A1) (A1) (B1) (B2) (A1) (A2)
                 (B1) (A1) (B2) (B2) (A1) (B1) (A2) (A1) (A1) (B2)
 The electronic state of the initial guess is 2-B1.
 Initial guess <Sx>= 0.0000 <Sy>= 0.0000 <Sz>= 0.5000 <S**2>= 0.7524 S= 0.5012
 Generating alternative initial guess.
 ExpMin= 1.22D-01 ExpMax= 1.17D+04 ExpMxC= 4.01D+02 IAcc=3 IRadAn=         5 AccDes= 0.00D+00
 Harris functional with IExCor=  402 and IRadAn=       5 diagonalized for initial guess.
 HarFok:  IExCor=  402 AccDes= 0.00D+00 IRadAn=         5 IDoV= 1 UseB2=F ITyADJ=14
 ICtDFT=  3500011 ScaDFX=  1.000000  1.000000  1.000000  1.000000
 FoFCou: FMM=F IPFlag=           0 FMFlag=      100000 FMFlg1=           0
         NFxFlg=           0 DoJE=T BraDBF=F KetDBF=T FulRan=T
         wScrn=  0.000000 ICntrl=       500 IOpCl=  0 I1Cent=   200000004 NGrid=           0
         NMat0=    1 NMatS0=      1 NMatT0=    0 NMatD0=    1 NMtDS0=    0 NMtDT0=    0
 Petite list used in FoFCou.
 Harris En= -76.0705625318097    
 Leave Link  401 at Tue Jun  8 12:35:47 2021, MaxMem=   134217728 cpu:               2.6 elap:               0.2
 (Enter /APL/ISV/x86_64/gaussian/16/C.01/g16/l502.exe)
 Keep R1 and R2 ints in memory in symmetry-blocked form, NReq=13860511.
 FoFCou: FMM=F IPFlag=           0 FMFlag=           0 FMFlg1=           0
         NFxFlg=           0 DoJE=F BraDBF=F KetDBF=F FulRan=T
         wScrn=  0.000000 ICntrl=       600 IOpCl=  0 I1Cent=           0 NGrid=           0
         NMat0=    1 NMatS0=    300 NMatT0=    0 NMatD0=    1 NMtDS0=    0 NMtDT0=    0
 Petite list used in FoFCou.
 UHF open shell SCF:
 Using DIIS extrapolation, IDIIS=  1040.
 NGot=   134217728 LenX=   134189263 LenY=   134188197
 Requested convergence on RMS density matrix=1.00D-08 within 128 cycles.
 Requested convergence on MAX density matrix=1.00D-06.
 Requested convergence on             energy=1.00D-06.
 No special actions if energy rises.
 Integral accuracy reduced to 1.0D-05 until final iterations.

 Cycle   1  Pass 0  IDiag  1:
 E= -75.9713106519694    
 DIIS: error= 9.52D-03 at cycle   1 NSaved=   1.
 NSaved= 1 IEnMin= 1 EnMin= -75.9713106519694     IErMin= 1 ErrMin= 9.52D-03
 ErrMax= 9.52D-03  0.00D+00 EMaxC= 1.00D-01 BMatC= 6.25D-03 BMatP= 6.25D-03
 IDIUse=3 WtCom= 9.05D-01 WtEn= 9.52D-02
 Coeff-Com:  0.100D+01
 Coeff-En:   0.100D+01
 Coeff:      0.100D+01
 Gap=     0.568 Goal=   None    Shift=    0.000
 Gap=     0.221 Goal=   None    Shift=    0.000
 GapD=    0.221 DampG=1.000 DampE=1.000 DampFc=1.0000 IDamp=-1.
 RMSDP=2.59D-03 MaxDP=1.64D-02              OVMax= 1.54D-02

 Cycle   2  Pass 0  IDiag  1:
 E= -75.9729112670718     Delta-E=       -0.001600615102 Rises=F Damp=F
 DIIS: error= 1.01D-03 at cycle   2 NSaved=   2.
 NSaved= 2 IEnMin= 2 EnMin= -75.9729112670718     IErMin= 2 ErrMin= 1.01D-03
 ErrMax= 1.01D-03  0.00D+00 EMaxC= 1.00D-01 BMatC= 1.06D-04 BMatP= 6.25D-03
 IDIUse=3 WtCom= 9.90D-01 WtEn= 1.01D-02
 Coeff-Com:  0.357D-01 0.964D+00
 Coeff-En:   0.000D+00 0.100D+01
 Coeff:      0.353D-01 0.965D+00
 Gap=     0.554 Goal=   None    Shift=    0.000
 Gap=     0.219 Goal=   None    Shift=    0.000
 RMSDP=2.28D-04 MaxDP=2.32D-03 DE=-1.60D-03 OVMax= 2.28D-03

 Cycle   3  Pass 0  IDiag  1:
 E= -75.9729171223619     Delta-E=       -0.000005855290 Rises=F Damp=F
 DIIS: error= 7.99D-04 at cycle   3 NSaved=   3.
 NSaved= 3 IEnMin= 3 EnMin= -75.9729171223619     IErMin= 3 ErrMin= 7.99D-04
 ErrMax= 7.99D-04  0.00D+00 EMaxC= 1.00D-01 BMatC= 7.79D-05 BMatP= 1.06D-04
 IDIUse=3 WtCom= 9.92D-01 WtEn= 7.99D-03
 Coeff-Com:  0.243D-03 0.459D+00 0.541D+00
 Coeff-En:   0.000D+00 0.403D+00 0.597D+00
 Coeff:      0.241D-03 0.459D+00 0.541D+00
 Gap=     0.553 Goal=   None    Shift=    0.000
 Gap=     0.219 Goal=   None    Shift=    0.000
 RMSDP=1.14D-04 MaxDP=1.33D-03 DE=-5.86D-06 OVMax= 1.35D-03

 Cycle   4  Pass 0  IDiag  1:
 E= -75.9729313763785     Delta-E=       -0.000014254017 Rises=F Damp=F
 DIIS: error= 1.23D-04 at cycle   4 NSaved=   4.
 NSaved= 4 IEnMin= 4 EnMin= -75.9729313763785     IErMin= 4 ErrMin= 1.23D-04
 ErrMax= 1.23D-04  0.00D+00 EMaxC= 1.00D-01 BMatC= 1.23D-06 BMatP= 7.79D-05
 IDIUse=3 WtCom= 9.99D-01 WtEn= 1.23D-03
 Coeff-Com: -0.227D-02 0.578D-01 0.147D+00 0.798D+00
 Coeff-En:   0.000D+00 0.000D+00 0.000D+00 0.100D+01
 Coeff:     -0.226D-02 0.577D-01 0.147D+00 0.798D+00
 Gap=     0.553 Goal=   None    Shift=    0.000
 Gap=     0.219 Goal=   None    Shift=    0.000
 RMSDP=1.44D-05 MaxDP=1.57D-04 DE=-1.43D-05 OVMax= 2.01D-04

 Cycle   5  Pass 0  IDiag  1:
 E= -75.9729316099182     Delta-E=       -0.000000233540 Rises=F Damp=F
 DIIS: error= 1.41D-05 at cycle   5 NSaved=   5.
 NSaved= 5 IEnMin= 5 EnMin= -75.9729316099182     IErMin= 5 ErrMin= 1.41D-05
 ErrMax= 1.41D-05  0.00D+00 EMaxC= 1.00D-01 BMatC= 8.17D-09 BMatP= 1.23D-06
 IDIUse=1 WtCom= 1.00D+00 WtEn= 0.00D+00
 Coeff-Com: -0.128D-03-0.315D-02 0.419D-02 0.849D-01 0.914D+00
 Coeff:     -0.128D-03-0.315D-02 0.419D-02 0.849D-01 0.914D+00
 Gap=     0.553 Goal=   None    Shift=    0.000
 Gap=     0.219 Goal=   None    Shift=    0.000
 RMSDP=1.64D-06 MaxDP=2.01D-05 DE=-2.34D-07 OVMax= 2.73D-05

 Initial convergence to 1.0D-05 achieved.  Increase integral accuracy.
 Cycle   6  Pass 1  IDiag  1:
 E= -75.9729311699351     Delta-E=        0.000000439983 Rises=F Damp=F
 DIIS: error= 2.32D-06 at cycle   1 NSaved=   1.
 NSaved= 1 IEnMin= 1 EnMin= -75.9729311699351     IErMin= 1 ErrMin= 2.32D-06
 ErrMax= 2.32D-06  0.00D+00 EMaxC= 1.00D-01 BMatC= 6.00D-10 BMatP= 6.00D-10
 IDIUse=1 WtCom= 1.00D+00 WtEn= 0.00D+00
 Coeff-Com:  0.100D+01
 Coeff:      0.100D+01
 Gap=     0.553 Goal=   None    Shift=    0.000
 Gap=     0.219 Goal=   None    Shift=    0.000
 RMSDP=1.64D-06 MaxDP=2.01D-05 DE= 4.40D-07 OVMax= 9.23D-06

 Cycle   7  Pass 1  IDiag  1:
 E= -75.9729311703110     Delta-E=       -0.000000000376 Rises=F Damp=F
 DIIS: error= 9.77D-07 at cycle   2 NSaved=   2.
 NSaved= 2 IEnMin= 2 EnMin= -75.9729311703110     IErMin= 2 ErrMin= 9.77D-07
 ErrMax= 9.77D-07  0.00D+00 EMaxC= 1.00D-01 BMatC= 9.71D-11 BMatP= 6.00D-10
 IDIUse=1 WtCom= 1.00D+00 WtEn= 0.00D+00
 Coeff-Com: -0.570D+00 0.157D+01
 Coeff:     -0.570D+00 0.157D+01
 Gap=     0.553 Goal=   None    Shift=    0.000
 Gap=     0.219 Goal=   None    Shift=    0.000
 RMSDP=4.44D-07 MaxDP=4.91D-06 DE=-3.76D-10 OVMax= 6.10D-06

 Cycle   8  Pass 1  IDiag  1:
 E= -75.9729311703830     Delta-E=       -0.000000000072 Rises=F Damp=F
 DIIS: error= 3.49D-07 at cycle   3 NSaved=   3.
 NSaved= 3 IEnMin= 3 EnMin= -75.9729311703830     IErMin= 3 ErrMin= 3.49D-07
 ErrMax= 3.49D-07  0.00D+00 EMaxC= 1.00D-01 BMatC= 1.31D-11 BMatP= 9.71D-11
 IDIUse=1 WtCom= 1.00D+00 WtEn= 0.00D+00
 Coeff-Com: -0.282D+00 0.695D+00 0.588D+00
 Coeff:     -0.282D+00 0.695D+00 0.588D+00
 Gap=     0.553 Goal=   None    Shift=    0.000
 Gap=     0.219 Goal=   None    Shift=    0.000
 RMSDP=5.65D-08 MaxDP=8.00D-07 DE=-7.20D-11 OVMax= 8.95D-07

 Cycle   9  Pass 1  IDiag  1:
 E= -75.9729311703856     Delta-E=       -0.000000000003 Rises=F Damp=F
 DIIS: error= 7.04D-08 at cycle   4 NSaved=   4.
 NSaved= 4 IEnMin= 4 EnMin= -75.9729311703856     IErMin= 4 ErrMin= 7.04D-08
 ErrMax= 7.04D-08  0.00D+00 EMaxC= 1.00D-01 BMatC= 5.82D-13 BMatP= 1.31D-11
 IDIUse=1 WtCom= 1.00D+00 WtEn= 0.00D+00
 Coeff-Com:  0.115D-01-0.548D-01 0.153D+00 0.891D+00
 Coeff:      0.115D-01-0.548D-01 0.153D+00 0.891D+00
 Gap=     0.553 Goal=   None    Shift=    0.000
 Gap=     0.219 Goal=   None    Shift=    0.000
 RMSDP=1.26D-08 MaxDP=1.76D-07 DE=-2.63D-12 OVMax= 2.04D-07

 Cycle  10  Pass 1  IDiag  1:
 E= -75.9729311703857     Delta-E=       -0.000000000000 Rises=F Damp=F
 DIIS: error= 3.57D-09 at cycle   5 NSaved=   5.
 NSaved= 5 IEnMin= 5 EnMin= -75.9729311703857     IErMin= 5 ErrMin= 3.57D-09
 ErrMax= 3.57D-09  0.00D+00 EMaxC= 1.00D-01 BMatC= 1.20D-15 BMatP= 5.82D-13
 IDIUse=1 WtCom= 1.00D+00 WtEn= 0.00D+00
 Coeff-Com:  0.408D-02-0.134D-01 0.128D-01 0.101D+00 0.896D+00
 Coeff:      0.408D-02-0.134D-01 0.128D-01 0.101D+00 0.896D+00
 Gap=     0.553 Goal=   None    Shift=    0.000
 Gap=     0.219 Goal=   None    Shift=    0.000
 RMSDP=5.11D-10 MaxDP=6.13D-09 DE=-1.14D-13 OVMax= 6.35D-09

 SCF Done:  E(UB3LYP) =  -75.9729311704     A.U. after   10 cycles
            NFock= 10  Conv=0.51D-09     -V/T= 2.0057
 <Sx>= 0.0000 <Sy>= 0.0000 <Sz>= 0.5000 <S**2>= 0.7525 S= 0.5013
 <L.S>= 0.000000000000E+00
 KE= 7.553860578116D+01 PE=-1.929134301135D+02 EE= 3.268632496559D+01
 Annihilation of the first spin contaminant:
 S**2 before annihilation     0.7525,   after     0.7500
 Leave Link  502 at Tue Jun  8 12:35:47 2021, MaxMem=   134217728 cpu:               2.5 elap:               0.2
 (Enter /APL/ISV/x86_64/gaussian/16/C.01/g16/l701.exe)
 ... and contract with generalized density number  0.
 Compute integral first derivatives.
 Leave Link  701 at Tue Jun  8 12:35:48 2021, MaxMem=   134217728 cpu:               1.3 elap:               0.1
 (Enter /APL/ISV/x86_64/gaussian/16/C.01/g16/l702.exe)
 L702 exits ... SP integral derivatives will be done elsewhere.
 Leave Link  702 at Tue Jun  8 12:35:48 2021, MaxMem=   134217728 cpu:               0.4 elap:               0.0
 (Enter /APL/ISV/x86_64/gaussian/16/C.01/g16/l703.exe)
 Integral derivatives from FoFJK, PRISM(SPDF).
 Compute integral first derivatives, UseDBF=F ICtDFT=           0.
 Calling FoFJK, ICntrl=      2127 FMM=F ISym2X=1 I1Cent= 0 IOpClX= 1 NMat=1 NMatS=1 NMatT=0.
 FoFJK:  IHMeth= 1 ICntrl=    2127 DoSepK=F KAlg= 0 I1Cent=           0 FoldK=F
 IRaf=         0 NMat=       1 IRICut=       1 DoRegI=T DoRafI=F ISym2E= 1 IDoP0=0 IntGTp=1.
 FoFCou: FMM=F IPFlag=           0 FMFlag=      100000 FMFlg1=         800
         NFxFlg=           0 DoJE=F BraDBF=F KetDBF=F FulRan=T
         wScrn=  0.000000 ICntrl=      2127 IOpCl=  1 I1Cent=           0 NGrid=           0
         NMat0=    1 NMatS0=      1 NMatT0=    0 NMatD0=    1 NMtDS0=    0 NMtDT0=    0
 Petite list used in FoFCou.
 Leave Link  703 at Tue Jun  8 12:35:48 2021, MaxMem=   134217728 cpu:               2.1 elap:               0.2
 (Enter /APL/ISV/x86_64/gaussian/16/C.01/g16/l716.exe)
 Dipole        =-6.26875213D-17 0.00000000D+00-8.68801268D-01
 ***** Axes restored to original set *****
 -------------------------------------------------------------------
 Center     Atomic                   Forces (Hartrees/Bohr)
 Number     Number              X              Y              Z
 -------------------------------------------------------------------
      1        8          -0.003208499   -0.003208499    0.000000000
      2        1           0.003311949   -0.000103449   -0.000000000
      3        1          -0.000103449    0.003311949   -0.000000000
 -------------------------------------------------------------------
 Cartesian Forces:  Max     0.003311949 RMS     0.002174303
 Leave Link  716 at Tue Jun  8 12:35:48 2021, MaxMem=   134217728 cpu:               0.4 elap:               0.0
 (Enter /APL/ISV/x86_64/gaussian/16/C.01/g16/l103.exe)

 GradGradGradGradGradGradGradGradGradGradGradGradGradGradGradGradGradGrad
 Berny optimization.
 Using GEDIIS/GDIIS optimizer.
 FormGI is forming the generalized inverse of G from B-inverse, IUseBI=4.
 Internal  Forces:  Max     0.003284862 RMS     0.002724515
 Search for a local minimum.
 Step number   2 out of a maximum of   20
 All quantities printed in internal units (Hartrees-Bohrs-Radians)
 RMS Force = .27245D-02 SwitMx=.10000D-02 MixMth= 1
 Mixed Optimization -- RFO/linear search
 Update second derivatives using D2CorX and points    1    2
 DE= -4.05D-03 DEPred=-4.11D-03 R= 9.84D-01
 TightC=F SS=  1.41D+00  RLast= 1.49D-01 DXNew= 5.0454D-01 4.4721D-01
 Trust test= 9.84D-01 RLast= 1.49D-01 DXMaxT set to 4.47D-01
 The second derivative matrix:
                          R1        R2        A1
           R1           0.51512
           R2          -0.02115   0.51512
           A1           0.00505   0.00505   0.16867
 ITU=  1  0
 Use linear search instead of GDIIS.
     Eigenvalues ---    0.16851   0.49413   0.53627
 RFO step:  Lambda=-2.18638579D-05 EMin= 1.68514028D-01
 Quartic linear search produced a step of  0.06310.
 Iteration  1 RMS(Cart)=  0.00454451 RMS(Int)=  0.00000767
 Iteration  2 RMS(Cart)=  0.00000856 RMS(Int)=  0.00000000
 Iteration  3 RMS(Cart)=  0.00000000 RMS(Int)=  0.00000000
 ITry= 1 IFail=0 DXMaxC= 4.39D-03 DCOld= 1.00D+10 DXMaxT= 4.47D-01 DXLimC= 3.00D+00 Rises=F
 ClnCor:  largest displacement from symmetrization is 1.91D-15 for atom     3.
 Variable       Old X    -DE/DX   Delta X   Delta X   Delta X     New X
                                 (Linear)    (Quad)   (Total)
    R1        1.90641   0.00328   0.00478   0.00240   0.00717   1.91358
    R2        1.90641   0.00328   0.00478   0.00240   0.00717   1.91358
    A1        1.89668  -0.00083   0.00655  -0.00994  -0.00339   1.89329
         Item               Value     Threshold  Converged?
 Maximum Force            0.003285     0.000450     NO 
 RMS     Force            0.002725     0.000300     NO 
 Maximum Displacement     0.004386     0.001800     NO 
 RMS     Displacement     0.004542     0.001200     NO 
 Predicted change in Energy=-2.379972D-05
 Lowest energy point so far.  Saving SCF results.
 GradGradGradGradGradGradGradGradGradGradGradGradGradGradGradGradGradGrad

 Leave Link  103 at Tue Jun  8 12:35:48 2021, MaxMem=   134217728 cpu:               0.1 elap:               0.0
 (Enter /APL/ISV/x86_64/gaussian/16/C.01/g16/l202.exe)
                          Input orientation:                          
 ---------------------------------------------------------------------
 Center     Atomic      Atomic             Coordinates (Angstroms)
 Number     Number       Type             X           Y           Z
 ---------------------------------------------------------------------
      1          8           0        0.221029    0.221029    0.000000
      2          1           0        1.220515    0.058456   -0.000000
      3          1           0        0.058456    1.220515    0.000000
 ---------------------------------------------------------------------
                    Distance matrix (angstroms):
                    1          2          3
     1  O    0.000000
     2  H    1.012622   0.000000
     3  H    1.012622   1.643401   0.000000
 Stoichiometry    H2O(1+,2)
 Framework group  C2V[C2(O),SGV(H2)]
 Deg. of freedom     2
 Full point group                 C2V     NOp   4
 RotChk:  IX=0 Diff= 1.39D-16
 Largest Abelian subgroup         C2V     NOp   4
 Largest concise Abelian subgroup C2      NOp   2
                         Standard orientation:                         
 ---------------------------------------------------------------------
 Center     Atomic      Atomic             Coordinates (Angstroms)
 Number     Number       Type             X           Y           Z
 ---------------------------------------------------------------------
      1          8           0       -0.000000    0.000000    0.118357
      2          1           0       -0.000000    0.821700   -0.473430
      3          1           0       -0.000000   -0.821700   -0.473430
 ---------------------------------------------------------------------
 Rotational constants (GHZ):         806.1511388         371.3428793         254.2335506
 Leave Link  202 at Tue Jun  8 12:35:48 2021, MaxMem=   134217728 cpu:               0.2 elap:               0.0
 (Enter /APL/ISV/x86_64/gaussian/16/C.01/g16/l301.exe)
 Standard basis: CC-pVDZ (5D, 7F)
 Ernie: Thresh=  0.10000D-02 Tol=  0.10000D-05 Strict=F.
 Ernie:  2 primitive shells out of 32 were deleted.
 There are    12 symmetry adapted cartesian basis functions of A1  symmetry.
 There are     2 symmetry adapted cartesian basis functions of A2  symmetry.
 There are     4 symmetry adapted cartesian basis functions of B1  symmetry.
 There are     7 symmetry adapted cartesian basis functions of B2  symmetry.
 There are    11 symmetry adapted basis functions of A1  symmetry.
 There are     2 symmetry adapted basis functions of A2  symmetry.
 There are     4 symmetry adapted basis functions of B1  symmetry.
 There are     7 symmetry adapted basis functions of B2  symmetry.
    24 basis functions,    47 primitive gaussians,    25 cartesian basis functions
     5 alpha electrons        4 beta electrons
       nuclear repulsion energy         8.6832997657 Hartrees.
 IExCor=  402 DFT=T Ex+Corr=B3LYP ExCW=0 ScaHFX=  0.200000
 ScaDFX=  0.800000  0.720000  1.000000  0.810000 ScalE2=  1.000000  1.000000
 IRadAn=      5 IRanWt=     -1 IRanGd=            0 ICorTp=0 IEmpDi=  4
 NAtoms=    3 NActive=    3 NUniq=    2 SFac= 2.25D+00 NAtFMM=   60 NAOKFM=F Big=F
 Integral buffers will be    131072 words long.
 Raffenetti 2 integral format.
 Two-electron integral symmetry is turned on.
 Leave Link  301 at Tue Jun  8 12:35:48 2021, MaxMem=   134217728 cpu:               0.8 elap:               0.1
 (Enter /APL/ISV/x86_64/gaussian/16/C.01/g16/l302.exe)
 NPDir=0 NMtPBC=     1 NCelOv=     1 NCel=       1 NClECP=     1 NCelD=      1
         NCelK=      1 NCelE2=     1 NClLst=     1 CellRange=     0.0.
 One-electron integrals computed using PRISM.
 One-electron integral symmetry used in STVInt
 NBasis=    24 RedAO= T EigKep=  3.99D-02  NBF=    11     2     4     7
 NBsUse=    24 1.00D-06 EigRej= -1.00D+00 NBFU=    11     2     4     7
 Precomputing XC quadrature grid using
 IXCGrd= 4 IRadAn=           5 IRanWt=          -1 IRanGd=           0 AccXCQ= 0.00D+00.
 Generated NRdTot=       0 NPtTot=           0 NUsed=           0 NTot=          32
 NSgBfM=    25    25    25    25    25 MxSgAt=     3 MxSgA2=     3.
 Leave Link  302 at Tue Jun  8 12:35:48 2021, MaxMem=   134217728 cpu:               1.5 elap:               0.1
 (Enter /APL/ISV/x86_64/gaussian/16/C.01/g16/l303.exe)
 DipDrv:  MaxL=1.
 Leave Link  303 at Tue Jun  8 12:35:48 2021, MaxMem=   134217728 cpu:               0.5 elap:               0.1
 (Enter /APL/ISV/x86_64/gaussian/16/C.01/g16/l401.exe)
 Initial guess from the checkpoint file:  "water_cation.chk"
 B after Tr=    -0.000000   -0.000000    0.000000
         Rot=    1.000000    0.000000    0.000000   -0.000000 Ang=   0.00 deg.
 Guess basis will be translated and rotated to current coordinates.
 JPrj=2 DoOrth=T DoCkMO=T.
 Initial guess orbital symmetries:
 Alpha Orbitals:
       Occupied  (A1) (A1) (B2) (B1) (A1)
       Virtual   (A1) (B2) (B2) (A1) (B1) (A1) (B2) (A2) (A1) (B1)
                 (A1) (B2) (A1) (B2) (B1) (A2) (A1) (A1) (B2)
 Beta  Orbitals:
       Occupied  (A1) (A1) (B2) (A1)
       Virtual   (B1) (A1) (B2) (B2) (A1) (A1) (B1) (B2) (A2) (A1)
                 (B1) (A1) (B2) (B2) (A1) (B1) (A2) (A1) (A1) (B2)
 The electronic state of the initial guess is 2-B1.
 Initial guess <Sx>= 0.0000 <Sy>= 0.0000 <Sz>= 0.5000 <S**2>= 0.7525 S= 0.5013
 Leave Link  401 at Tue Jun  8 12:35:48 2021, MaxMem=   134217728 cpu:               1.6 elap:               0.1
 (Enter /APL/ISV/x86_64/gaussian/16/C.01/g16/l502.exe)
 Keep R1 and R2 ints in memory in symmetry-blocked form, NReq=13860511.
 FoFCou: FMM=F IPFlag=           0 FMFlag=           0 FMFlg1=           0
         NFxFlg=           0 DoJE=F BraDBF=F KetDBF=F FulRan=T
         wScrn=  0.000000 ICntrl=       600 IOpCl=  0 I1Cent=           0 NGrid=           0
         NMat0=    1 NMatS0=    300 NMatT0=    0 NMatD0=    1 NMtDS0=    0 NMtDT0=    0
 Petite list used in FoFCou.
 UHF open shell SCF:
 Using DIIS extrapolation, IDIIS=  1040.
 NGot=   134217728 LenX=   134189263 LenY=   134188197
 Requested convergence on RMS density matrix=1.00D-08 within 128 cycles.
 Requested convergence on MAX density matrix=1.00D-06.
 Requested convergence on             energy=1.00D-06.
 No special actions if energy rises.

 Cycle   1  Pass 1  IDiag  1:
 E= -75.9729516456459    
 DIIS: error= 6.38D-04 at cycle   1 NSaved=   1.
 NSaved= 1 IEnMin= 1 EnMin= -75.9729516456459     IErMin= 1 ErrMin= 6.38D-04
 ErrMax= 6.38D-04  0.00D+00 EMaxC= 1.00D-01 BMatC= 3.10D-05 BMatP= 3.10D-05
 IDIUse=3 WtCom= 9.94D-01 WtEn= 6.38D-03
 Coeff-Com:  0.100D+01
 Coeff-En:   0.100D+01
 Coeff:      0.100D+01
 Gap=     0.551 Goal=   None    Shift=    0.000
 Gap=     0.219 Goal=   None    Shift=    0.000
 RMSDP=1.69D-04 MaxDP=1.33D-03              OVMax= 1.22D-03

 Cycle   2  Pass 1  IDiag  1:
 E= -75.9729598471361     Delta-E=       -0.000008201490 Rises=F Damp=F
 DIIS: error= 1.41D-04 at cycle   2 NSaved=   2.
 NSaved= 2 IEnMin= 2 EnMin= -75.9729598471361     IErMin= 2 ErrMin= 1.41D-04
 ErrMax= 1.41D-04  0.00D+00 EMaxC= 1.00D-01 BMatC= 2.24D-06 BMatP= 3.10D-05
 IDIUse=3 WtCom= 9.99D-01 WtEn= 1.41D-03
 Coeff-Com:  0.114D+00 0.886D+00
 Coeff-En:   0.000D+00 0.100D+01
 Coeff:      0.114D+00 0.886D+00
 Gap=     0.551 Goal=   None    Shift=    0.000
 Gap=     0.219 Goal=   None    Shift=    0.000
 RMSDP=2.88D-05 MaxDP=3.24D-04 DE=-8.20D-06 OVMax= 3.06D-04

 Cycle   3  Pass 1  IDiag  1:
 E= -75.9729600217397     Delta-E=       -0.000000174604 Rises=F Damp=F
 DIIS: error= 9.97D-05 at cycle   3 NSaved=   3.
 NSaved= 3 IEnMin= 3 EnMin= -75.9729600217397     IErMin= 3 ErrMin= 9.97D-05
 ErrMax= 9.97D-05  0.00D+00 EMaxC= 1.00D-01 BMatC= 1.23D-06 BMatP= 2.24D-06
 IDIUse=1 WtCom= 1.00D+00 WtEn= 0.00D+00
 Coeff-Com:  0.251D-02 0.422D+00 0.576D+00
 Coeff:      0.251D-02 0.422D+00 0.576D+00
 Gap=     0.551 Goal=   None    Shift=    0.000
 Gap=     0.219 Goal=   None    Shift=    0.000
 RMSDP=1.48D-05 MaxDP=1.75D-04 DE=-1.75D-07 OVMax= 1.75D-04

 Cycle   4  Pass 1  IDiag  1:
 E= -75.9729602515271     Delta-E=       -0.000000229787 Rises=F Damp=F
 DIIS: error= 1.65D-05 at cycle   4 NSaved=   4.
 NSaved= 4 IEnMin= 4 EnMin= -75.9729602515271     IErMin= 4 ErrMin= 1.65D-05
 ErrMax= 1.65D-05  0.00D+00 EMaxC= 1.00D-01 BMatC= 2.08D-08 BMatP= 1.23D-06
 IDIUse=1 WtCom= 1.00D+00 WtEn= 0.00D+00
 Coeff-Com: -0.439D-02 0.676D-01 0.171D+00 0.765D+00
 Coeff:     -0.439D-02 0.676D-01 0.171D+00 0.765D+00
 Gap=     0.551 Goal=   None    Shift=    0.000
 Gap=     0.219 Goal=   None    Shift=    0.000
 RMSDP=1.71D-06 MaxDP=1.97D-05 DE=-2.30D-07 OVMax= 2.58D-05

 Cycle   5  Pass 1  IDiag  1:
 E= -75.9729602554710     Delta-E=       -0.000000003944 Rises=F Damp=F
 DIIS: error= 1.19D-06 at cycle   5 NSaved=   5.
 NSaved= 5 IEnMin= 5 EnMin= -75.9729602554710     IErMin= 5 ErrMin= 1.19D-06
 ErrMax= 1.19D-06  0.00D+00 EMaxC= 1.00D-01 BMatC= 8.67D-11 BMatP= 2.08D-08
 IDIUse=1 WtCom= 1.00D+00 WtEn= 0.00D+00
 Coeff-Com: -0.528D-04-0.838D-02-0.850D-02-0.213D-01 0.104D+01
 Coeff:     -0.528D-04-0.838D-02-0.850D-02-0.213D-01 0.104D+01
 Gap=     0.551 Goal=   None    Shift=    0.000
 Gap=     0.219 Goal=   None    Shift=    0.000
 RMSDP=2.36D-07 MaxDP=2.58D-06 DE=-3.94D-09 OVMax= 3.59D-06

 Cycle   6  Pass 1  IDiag  1:
 E= -75.9729602555112     Delta-E=       -0.000000000040 Rises=F Damp=F
 DIIS: error= 2.56D-07 at cycle   6 NSaved=   6.
 NSaved= 6 IEnMin= 6 EnMin= -75.9729602555112     IErMin= 6 ErrMin= 2.56D-07
 ErrMax= 2.56D-07  0.00D+00 EMaxC= 1.00D-01 BMatC= 6.50D-12 BMatP= 8.67D-11
 IDIUse=1 WtCom= 1.00D+00 WtEn= 0.00D+00
 Coeff-Com:  0.169D-03 0.550D-03-0.284D-02-0.160D-01-0.376D+00 0.139D+01
 Coeff:      0.169D-03 0.550D-03-0.284D-02-0.160D-01-0.376D+00 0.139D+01
 Gap=     0.551 Goal=   None    Shift=    0.000
 Gap=     0.219 Goal=   None    Shift=    0.000
 RMSDP=1.10D-07 MaxDP=1.10D-06 DE=-4.02D-11 OVMax= 1.42D-06

 Cycle   7  Pass 1  IDiag  1:
 E= -75.9729602555163     Delta-E=       -0.000000000005 Rises=F Damp=F
 DIIS: error= 4.43D-08 at cycle   7 NSaved=   7.
 NSaved= 7 IEnMin= 7 EnMin= -75.9729602555163     IErMin= 7 ErrMin= 4.43D-08
 ErrMax= 4.43D-08  0.00D+00 EMaxC= 1.00D-01 BMatC= 1.22D-13 BMatP= 6.50D-12
 IDIUse=1 WtCom= 1.00D+00 WtEn= 0.00D+00
 Coeff-Com: -0.158D-04 0.165D-03 0.372D-03 0.161D-02 0.185D-01-0.206D+00
 Coeff-Com:  0.119D+01
 Coeff:     -0.158D-04 0.165D-03 0.372D-03 0.161D-02 0.185D-01-0.206D+00
 Coeff:      0.119D+01
 Gap=     0.551 Goal=   None    Shift=    0.000
 Gap=     0.219 Goal=   None    Shift=    0.000
 RMSDP=1.57D-08 MaxDP=1.72D-07 DE=-5.09D-12 OVMax= 2.23D-07

 Cycle   8  Pass 1  IDiag  1:
 E= -75.9729602555164     Delta-E=       -0.000000000000 Rises=F Damp=F
 DIIS: error= 2.07D-09 at cycle   8 NSaved=   8.
 NSaved= 8 IEnMin= 8 EnMin= -75.9729602555164     IErMin= 8 ErrMin= 2.07D-09
 ErrMax= 2.07D-09  0.00D+00 EMaxC= 1.00D-01 BMatC= 2.32D-16 BMatP= 1.22D-13
 IDIUse=1 WtCom= 1.00D+00 WtEn= 0.00D+00
 Coeff-Com:  0.381D-06-0.143D-04-0.183D-04 0.653D-05 0.361D-03 0.835D-02
 Coeff-Com: -0.849D-01 0.108D+01
 Coeff:      0.381D-06-0.143D-04-0.183D-04 0.653D-05 0.361D-03 0.835D-02
 Coeff:     -0.849D-01 0.108D+01
 Gap=     0.551 Goal=   None    Shift=    0.000
 Gap=     0.219 Goal=   None    Shift=    0.000
 RMSDP=4.12D-10 MaxDP=6.37D-09 DE=-8.53D-14 OVMax= 7.94D-09

 SCF Done:  E(UB3LYP) =  -75.9729602555     A.U. after    8 cycles
            NFock=  8  Conv=0.41D-09     -V/T= 2.0059
 <Sx>= 0.0000 <Sy>= 0.0000 <Sz>= 0.5000 <S**2>= 0.7525 S= 0.5013
 <L.S>= 0.000000000000E+00
 KE= 7.552865906913D+01 PE=-1.928518940369D+02 EE= 3.266697494658D+01
 Annihilation of the first spin contaminant:
 S**2 before annihilation     0.7525,   after     0.7500
 Leave Link  502 at Tue Jun  8 12:35:49 2021, MaxMem=   134217728 cpu:               2.7 elap:               0.2
 (Enter /APL/ISV/x86_64/gaussian/16/C.01/g16/l701.exe)
 ... and contract with generalized density number  0.
 Compute integral first derivatives.
 Leave Link  701 at Tue Jun  8 12:35:49 2021, MaxMem=   134217728 cpu:               1.3 elap:               0.1
 (Enter /APL/ISV/x86_64/gaussian/16/C.01/g16/l702.exe)
 L702 exits ... SP integral derivatives will be done elsewhere.
 Leave Link  702 at Tue Jun  8 12:35:49 2021, MaxMem=   134217728 cpu:               0.3 elap:               0.0
 (Enter /APL/ISV/x86_64/gaussian/16/C.01/g16/l703.exe)
 Integral derivatives from FoFJK, PRISM(SPDF).
 Compute integral first derivatives, UseDBF=F ICtDFT=           0.
 Calling FoFJK, ICntrl=      2127 FMM=F ISym2X=1 I1Cent= 0 IOpClX= 1 NMat=1 NMatS=1 NMatT=0.
 FoFJK:  IHMeth= 1 ICntrl=    2127 DoSepK=F KAlg= 0 I1Cent=           0 FoldK=F
 IRaf=         0 NMat=       1 IRICut=       1 DoRegI=T DoRafI=F ISym2E= 1 IDoP0=0 IntGTp=1.
 FoFCou: FMM=F IPFlag=           0 FMFlag=      100000 FMFlg1=         800
         NFxFlg=           0 DoJE=F BraDBF=F KetDBF=F FulRan=T
         wScrn=  0.000000 ICntrl=      2127 IOpCl=  1 I1Cent=           0 NGrid=           0
         NMat0=    1 NMatS0=      1 NMatT0=    0 NMatD0=    1 NMtDS0=    0 NMtDT0=    0
 Petite list used in FoFCou.
 Leave Link  703 at Tue Jun  8 12:35:49 2021, MaxMem=   134217728 cpu:               1.9 elap:               0.1
 (Enter /APL/ISV/x86_64/gaussian/16/C.01/g16/l716.exe)
 Dipole        =-6.32728863D-17-4.44089210D-16-8.73731311D-01
 ***** Axes restored to original set *****
 -------------------------------------------------------------------
 Center     Atomic                   Forces (Hartrees/Bohr)
 Number     Number              X              Y              Z
 -------------------------------------------------------------------
      1        8          -0.000729595   -0.000729595    0.000000000
      2        1           0.000488969    0.000240626   -0.000000000
      3        1           0.000240626    0.000488969   -0.000000000
 -------------------------------------------------------------------
 Cartesian Forces:  Max     0.000729595 RMS     0.000429289
 Leave Link  716 at Tue Jun  8 12:35:49 2021, MaxMem=   134217728 cpu:               0.5 elap:               0.1
 (Enter /APL/ISV/x86_64/gaussian/16/C.01/g16/l103.exe)

 GradGradGradGradGradGradGradGradGradGradGradGradGradGradGradGradGradGrad
 Berny optimization.
 Using GEDIIS/GDIIS optimizer.
 FormGI is forming the generalized inverse of G from B-inverse, IUseBI=4.
 Internal  Forces:  Max     0.000604704 RMS     0.000503299
 Search for a local minimum.
 Step number   3 out of a maximum of   20
 All quantities printed in internal units (Hartrees-Bohrs-Radians)
 RMS Force = .50330D-03 SwitMx=.10000D-02 MixMth= 2
 Mixed Optimization -- En-DIIS/RFO-DIIS
 Update second derivatives using D2CorX and points    1    2    3
 DE= -2.91D-05 DEPred=-2.38D-05 R= 1.22D+00
 TightC=F SS=  1.41D+00  RLast= 1.07D-02 DXNew= 7.5211D-01 3.2082D-02
 Trust test= 1.22D+00 RLast= 1.07D-02 DXMaxT set to 4.47D-01
 The second derivative matrix:
                          R1        R2        A1
           R1           0.47183
           R2          -0.06444   0.47183
           A1           0.02374   0.02374   0.16664
 ITU=  1  1  0
 Use linear search instead of GDIIS.
     Eigenvalues ---    0.16204   0.41199   0.53627
 RFO step:  Lambda=-1.91102521D-06 EMin= 1.62042990D-01
 Quartic linear search produced a step of  0.20600.
 Iteration  1 RMS(Cart)=  0.00207795 RMS(Int)=  0.00000358
 Iteration  2 RMS(Cart)=  0.00000388 RMS(Int)=  0.00000000
 Iteration  3 RMS(Cart)=  0.00000000 RMS(Int)=  0.00000000
 ITry= 1 IFail=0 DXMaxC= 1.85D-03 DCOld= 1.00D+10 DXMaxT= 4.47D-01 DXLimC= 3.00D+00 Rises=F
 ClnCor:  largest displacement from symmetrization is 4.05D-15 for atom     3.
 Variable       Old X    -DE/DX   Delta X   Delta X   Delta X     New X
                                 (Linear)    (Quad)   (Total)
    R1        1.91358   0.00044   0.00148  -0.00013   0.00135   1.91492
    R2        1.91358   0.00044   0.00148  -0.00013   0.00135   1.91492
    A1        1.89329  -0.00060  -0.00070  -0.00334  -0.00404   1.88925
         Item               Value     Threshold  Converged?
 Maximum Force            0.000605     0.000450     NO 
 RMS     Force            0.000503     0.000300     NO 
 Maximum Displacement     0.001847     0.001800     NO 
 RMS     Displacement     0.002080     0.001200     NO 
 Predicted change in Energy=-1.798486D-06
 Lowest energy point so far.  Saving SCF results.
 GradGradGradGradGradGradGradGradGradGradGradGradGradGradGradGradGradGrad

 Leave Link  103 at Tue Jun  8 12:35:49 2021, MaxMem=   134217728 cpu:               0.1 elap:               0.0
 (Enter /APL/ISV/x86_64/gaussian/16/C.01/g16/l202.exe)
                          Input orientation:                          
 ---------------------------------------------------------------------
 Center     Atomic      Atomic             Coordinates (Angstroms)
 Number     Number       Type             X           Y           Z
 ---------------------------------------------------------------------
      1          8           0        0.220051    0.220051    0.000000
      2          1           0        1.220567    0.059382   -0.000000
      3          1           0        0.059382    1.220567    0.000000
 ---------------------------------------------------------------------
                    Distance matrix (angstroms):
                    1          2          3
     1  O    0.000000
     2  H    1.013334   0.000000
     3  H    1.013334   1.642163   0.000000
 Stoichiometry    H2O(1+,2)
 Framework group  C2V[C2(O),SGV(H2)]
 Deg. of freedom     2
 Full point group                 C2V     NOp   4
 RotChk:  IX=0 Diff= 5.55D-16
 Largest Abelian subgroup         C2V     NOp   4
 Largest concise Abelian subgroup C2      NOp   2
                         Standard orientation:                         
 ---------------------------------------------------------------------
 Center     Atomic      Atomic             Coordinates (Angstroms)
 Number     Number       Type             X           Y           Z
 ---------------------------------------------------------------------
      1          8           0       -0.000000   -0.000000    0.118772
      2          1           0       -0.000000    0.821081   -0.475089
      3          1           0       -0.000000   -0.821081   -0.475089
 ---------------------------------------------------------------------
 Rotational constants (GHZ):         800.5305270         371.9029477         253.9330965
 Leave Link  202 at Tue Jun  8 12:35:49 2021, MaxMem=   134217728 cpu:               0.2 elap:               0.0
 (Enter /APL/ISV/x86_64/gaussian/16/C.01/g16/l301.exe)
 Standard basis: CC-pVDZ (5D, 7F)
 Ernie: Thresh=  0.10000D-02 Tol=  0.10000D-05 Strict=F.
 Ernie:  2 primitive shells out of 32 were deleted.
 There are    12 symmetry adapted cartesian basis functions of A1  symmetry.
 There are     2 symmetry adapted cartesian basis functions of A2  symmetry.
 There are     4 symmetry adapted cartesian basis functions of B1  symmetry.
 There are     7 symmetry adapted cartesian basis functions of B2  symmetry.
 There are    11 symmetry adapted basis functions of A1  symmetry.
 There are     2 symmetry adapted basis functions of A2  symmetry.
 There are     4 symmetry adapted basis functions of B1  symmetry.
 There are     7 symmetry adapted basis functions of B2  symmetry.
    24 basis functions,    47 primitive gaussians,    25 cartesian basis functions
     5 alpha electrons        4 beta electrons
       nuclear repulsion energy         8.6776692640 Hartrees.
 IExCor=  402 DFT=T Ex+Corr=B3LYP ExCW=0 ScaHFX=  0.200000
 ScaDFX=  0.800000  0.720000  1.000000  0.810000 ScalE2=  1.000000  1.000000
 IRadAn=      5 IRanWt=     -1 IRanGd=            0 ICorTp=0 IEmpDi=  4
 NAtoms=    3 NActive=    3 NUniq=    2 SFac= 2.25D+00 NAtFMM=   60 NAOKFM=F Big=F
 Integral buffers will be    131072 words long.
 Raffenetti 2 integral format.
 Two-electron integral symmetry is turned on.
 Leave Link  301 at Tue Jun  8 12:35:49 2021, MaxMem=   134217728 cpu:               0.8 elap:               0.1
 (Enter /APL/ISV/x86_64/gaussian/16/C.01/g16/l302.exe)
 NPDir=0 NMtPBC=     1 NCelOv=     1 NCel=       1 NClECP=     1 NCelD=      1
         NCelK=      1 NCelE2=     1 NClLst=     1 CellRange=     0.0.
 One-electron integrals computed using PRISM.
 One-electron integral symmetry used in STVInt
 NBasis=    24 RedAO= T EigKep=  3.99D-02  NBF=    11     2     4     7
 NBsUse=    24 1.00D-06 EigRej= -1.00D+00 NBFU=    11     2     4     7
 Precomputing XC quadrature grid using
 IXCGrd= 4 IRadAn=           5 IRanWt=          -1 IRanGd=           0 AccXCQ= 0.00D+00.
 Generated NRdTot=       0 NPtTot=           0 NUsed=           0 NTot=          32
 NSgBfM=    25    25    25    25    25 MxSgAt=     3 MxSgA2=     3.
 Leave Link  302 at Tue Jun  8 12:35:49 2021, MaxMem=   134217728 cpu:               1.6 elap:               0.1
 (Enter /APL/ISV/x86_64/gaussian/16/C.01/g16/l303.exe)
 DipDrv:  MaxL=1.
 Leave Link  303 at Tue Jun  8 12:35:49 2021, MaxMem=   134217728 cpu:               0.4 elap:               0.0
 (Enter /APL/ISV/x86_64/gaussian/16/C.01/g16/l401.exe)
 Initial guess from the checkpoint file:  "water_cation.chk"
 B after Tr=     0.000000   -0.000000   -0.000000
         Rot=    1.000000   -0.000000    0.000000    0.000000 Ang=   0.00 deg.
 Guess basis will be translated and rotated to current coordinates.
 JPrj=2 DoOrth=T DoCkMO=T.
 Initial guess orbital symmetries:
 Alpha Orbitals:
       Occupied  (A1) (A1) (B2) (B1) (A1)
       Virtual   (A1) (B2) (B2) (A1) (B1) (A1) (B2) (A2) (A1) (B1)
                 (A1) (B2) (A1) (B2) (B1) (A2) (A1) (A1) (B2)
 Beta  Orbitals:
       Occupied  (A1) (A1) (B2) (A1)
       Virtual   (B1) (A1) (B2) (B2) (A1) (A1) (B1) (B2) (A2) (A1)
                 (B1) (A1) (B2) (B2) (A1) (B1) (A2) (A1) (A1) (B2)
 The electronic state of the initial guess is 2-B1.
 Initial guess <Sx>= 0.0000 <Sy>= 0.0000 <Sz>= 0.5000 <S**2>= 0.7525 S= 0.5013
 Leave Link  401 at Tue Jun  8 12:35:49 2021, MaxMem=   134217728 cpu:               1.4 elap:               0.1
 (Enter /APL/ISV/x86_64/gaussian/16/C.01/g16/l502.exe)
 Keep R1 and R2 ints in memory in symmetry-blocked form, NReq=13860511.
 FoFCou: FMM=F IPFlag=           0 FMFlag=           0 FMFlg1=           0
         NFxFlg=           0 DoJE=F BraDBF=F KetDBF=F FulRan=T
         wScrn=  0.000000 ICntrl=       600 IOpCl=  0 I1Cent=           0 NGrid=           0
         NMat0=    1 NMatS0=    300 NMatT0=    0 NMatD0=    1 NMtDS0=    0 NMtDT0=    0
 Petite list used in FoFCou.
 UHF open shell SCF:
 Using DIIS extrapolation, IDIIS=  1040.
 NGot=   134217728 LenX=   134189263 LenY=   134188197
 Requested convergence on RMS density matrix=1.00D-08 within 128 cycles.
 Requested convergence on MAX density matrix=1.00D-06.
 Requested convergence on             energy=1.00D-06.
 No special actions if energy rises.

 Cycle   1  Pass 1  IDiag  1:
 E= -75.9729611536189    
 DIIS: error= 1.46D-04 at cycle   1 NSaved=   1.
 NSaved= 1 IEnMin= 1 EnMin= -75.9729611536189     IErMin= 1 ErrMin= 1.46D-04
 ErrMax= 1.46D-04  0.00D+00 EMaxC= 1.00D-01 BMatC= 3.26D-06 BMatP= 3.26D-06
 IDIUse=3 WtCom= 9.99D-01 WtEn= 1.46D-03
 Coeff-Com:  0.100D+01
 Coeff-En:   0.100D+01
 Coeff:      0.100D+01
 Gap=     0.551 Goal=   None    Shift=    0.000
 Gap=     0.219 Goal=   None    Shift=    0.000
 RMSDP=6.37D-05 MaxDP=4.54D-04              OVMax= 5.18D-04

 Cycle   2  Pass 1  IDiag  1:
 E= -75.9729622327461     Delta-E=       -0.000001079127 Rises=F Damp=F
 DIIS: error= 4.02D-05 at cycle   2 NSaved=   2.
 NSaved= 2 IEnMin= 2 EnMin= -75.9729622327461     IErMin= 2 ErrMin= 4.02D-05
 ErrMax= 4.02D-05  0.00D+00 EMaxC= 1.00D-01 BMatC= 1.69D-07 BMatP= 3.26D-06
 IDIUse=1 WtCom= 1.00D+00 WtEn= 0.00D+00
 Coeff-Com:  0.445D-01 0.955D+00
 Coeff:      0.445D-01 0.955D+00
 Gap=     0.551 Goal=   None    Shift=    0.000
 Gap=     0.219 Goal=   None    Shift=    0.000
 RMSDP=8.47D-06 MaxDP=9.35D-05 DE=-1.08D-06 OVMax= 8.77D-05

 Cycle   3  Pass 1  IDiag  1:
 E= -75.9729622418479     Delta-E=       -0.000000009102 Rises=F Damp=F
 DIIS: error= 3.06D-05 at cycle   3 NSaved=   3.
 NSaved= 3 IEnMin= 3 EnMin= -75.9729622418479     IErMin= 3 ErrMin= 3.06D-05
 ErrMax= 3.06D-05  0.00D+00 EMaxC= 1.00D-01 BMatC= 1.18D-07 BMatP= 1.69D-07
 IDIUse=1 WtCom= 1.00D+00 WtEn= 0.00D+00
 Coeff-Com: -0.194D-01 0.458D+00 0.561D+00
 Coeff:     -0.194D-01 0.458D+00 0.561D+00
 Gap=     0.551 Goal=   None    Shift=    0.000
 Gap=     0.219 Goal=   None    Shift=    0.000
 RMSDP=4.59D-06 MaxDP=5.38D-05 DE=-9.10D-09 OVMax= 5.27D-05

 Cycle   4  Pass 1  IDiag  1:
 E= -75.9729622639141     Delta-E=       -0.000000022066 Rises=F Damp=F
 DIIS: error= 4.85D-06 at cycle   4 NSaved=   4.
 NSaved= 4 IEnMin= 4 EnMin= -75.9729622639141     IErMin= 4 ErrMin= 4.85D-06
 ErrMax= 4.85D-06  0.00D+00 EMaxC= 1.00D-01 BMatC= 1.94D-09 BMatP= 1.18D-07
 IDIUse=1 WtCom= 1.00D+00 WtEn= 0.00D+00
 Coeff-Com: -0.607D-02 0.835D-01 0.175D+00 0.748D+00
 Coeff:     -0.607D-02 0.835D-01 0.175D+00 0.748D+00
 Gap=     0.551 Goal=   None    Shift=    0.000
 Gap=     0.219 Goal=   None    Shift=    0.000
 RMSDP=5.13D-07 MaxDP=5.99D-06 DE=-2.21D-08 OVMax= 7.63D-06

 Cycle   5  Pass 1  IDiag  1:
 E= -75.9729622642795     Delta-E=       -0.000000000365 Rises=F Damp=F
 DIIS: error= 3.52D-07 at cycle   5 NSaved=   5.
 NSaved= 5 IEnMin= 5 EnMin= -75.9729622642795     IErMin= 5 ErrMin= 3.52D-07
 ErrMax= 3.52D-07  0.00D+00 EMaxC= 1.00D-01 BMatC= 6.62D-12 BMatP= 1.94D-09
 IDIUse=1 WtCom= 1.00D+00 WtEn= 0.00D+00
 Coeff-Com:  0.261D-03-0.901D-02-0.679D-02-0.117D-01 0.103D+01
 Coeff:      0.261D-03-0.901D-02-0.679D-02-0.117D-01 0.103D+01
 Gap=     0.551 Goal=   None    Shift=    0.000
 Gap=     0.219 Goal=   None    Shift=    0.000
 RMSDP=5.87D-08 MaxDP=6.82D-07 DE=-3.65D-10 OVMax= 9.80D-07

 Cycle   6  Pass 1  IDiag  1:
 E= -75.9729622642820     Delta-E=       -0.000000000003 Rises=F Damp=F
 DIIS: error= 5.81D-08 at cycle   6 NSaved=   6.
 NSaved= 6 IEnMin= 6 EnMin= -75.9729622642820     IErMin= 6 ErrMin= 5.81D-08
 ErrMax= 5.81D-08  0.00D+00 EMaxC= 1.00D-01 BMatC= 3.23D-13 BMatP= 6.62D-12
 IDIUse=1 WtCom= 1.00D+00 WtEn= 0.00D+00
 Coeff-Com:  0.472D-04 0.991D-03-0.137D-02-0.896D-02-0.318D+00 0.133D+01
 Coeff:      0.472D-04 0.991D-03-0.137D-02-0.896D-02-0.318D+00 0.133D+01
 Gap=     0.551 Goal=   None    Shift=    0.000
 Gap=     0.219 Goal=   None    Shift=    0.000
 RMSDP=2.27D-08 MaxDP=2.45D-07 DE=-2.50D-12 OVMax= 3.17D-07

 Cycle   7  Pass 1  IDiag  1:
 E= -75.9729622642822     Delta-E=       -0.000000000000 Rises=F Damp=F
 DIIS: error= 1.24D-08 at cycle   7 NSaved=   7.
 NSaved= 7 IEnMin= 7 EnMin= -75.9729622642822     IErMin= 7 ErrMin= 1.24D-08
 ErrMax= 1.24D-08  0.00D+00 EMaxC= 1.00D-01 BMatC= 1.21D-14 BMatP= 3.23D-13
 IDIUse=1 WtCom= 1.00D+00 WtEn= 0.00D+00
 Coeff-Com: -0.214D-04 0.261D-03 0.478D-03 0.158D-02 0.857D-02-0.266D+00
 Coeff-Com:  0.126D+01
 Coeff:     -0.214D-04 0.261D-03 0.478D-03 0.158D-02 0.857D-02-0.266D+00
 Coeff:      0.126D+01
 Gap=     0.551 Goal=   None    Shift=    0.000
 Gap=     0.219 Goal=   None    Shift=    0.000
 RMSDP=5.23D-09 MaxDP=5.46D-08 DE=-1.99D-13 OVMax= 7.16D-08

 SCF Done:  E(UB3LYP) =  -75.9729622643     A.U. after    7 cycles
            NFock=  7  Conv=0.52D-08     -V/T= 2.0059
 <Sx>= 0.0000 <Sy>= 0.0000 <Sz>= 0.5000 <S**2>= 0.7525 S= 0.5013
 <L.S>= 0.000000000000E+00
 KE= 7.552699418668D+01 PE=-1.928405530602D+02 EE= 3.266292734520D+01
 Annihilation of the first spin contaminant:
 S**2 before annihilation     0.7525,   after     0.7500
 Leave Link  502 at Tue Jun  8 12:35:50 2021, MaxMem=   134217728 cpu:               2.4 elap:               0.2
 (Enter /APL/ISV/x86_64/gaussian/16/C.01/g16/l701.exe)
 ... and contract with generalized density number  0.
 Compute integral first derivatives.
 Leave Link  701 at Tue Jun  8 12:35:50 2021, MaxMem=   134217728 cpu:               1.3 elap:               0.1
 (Enter /APL/ISV/x86_64/gaussian/16/C.01/g16/l702.exe)
 L702 exits ... SP integral derivatives will be done elsewhere.
 Leave Link  702 at Tue Jun  8 12:35:50 2021, MaxMem=   134217728 cpu:               0.5 elap:               0.1
 (Enter /APL/ISV/x86_64/gaussian/16/C.01/g16/l703.exe)
 Integral derivatives from FoFJK, PRISM(SPDF).
 Compute integral first derivatives, UseDBF=F ICtDFT=           0.
 Calling FoFJK, ICntrl=      2127 FMM=F ISym2X=1 I1Cent= 0 IOpClX= 1 NMat=1 NMatS=1 NMatT=0.
 FoFJK:  IHMeth= 1 ICntrl=    2127 DoSepK=F KAlg= 0 I1Cent=           0 FoldK=F
 IRaf=         0 NMat=       1 IRICut=       1 DoRegI=T DoRafI=F ISym2E= 1 IDoP0=0 IntGTp=1.
 FoFCou: FMM=F IPFlag=           0 FMFlag=      100000 FMFlg1=         800
         NFxFlg=           0 DoJE=F BraDBF=F KetDBF=F FulRan=T
         wScrn=  0.000000 ICntrl=      2127 IOpCl=  1 I1Cent=           0 NGrid=           0
         NMat0=    1 NMatS0=      1 NMatT0=    0 NMatD0=    1 NMtDS0=    0 NMtDT0=    0
 Petite list used in FoFCou.
 Leave Link  703 at Tue Jun  8 12:35:50 2021, MaxMem=   134217728 cpu:               2.0 elap:               0.1
 (Enter /APL/ISV/x86_64/gaussian/16/C.01/g16/l716.exe)
 Dipole        =-6.32660658D-17-6.66133815D-16-8.76088708D-01
 ***** Axes restored to original set *****
 -------------------------------------------------------------------
 Center     Atomic                   Forces (Hartrees/Bohr)
 Number     Number              X              Y              Z
 -------------------------------------------------------------------
      1        8          -0.000044583   -0.000044583    0.000000000
      2        1          -0.000018502    0.000063085   -0.000000000
      3        1           0.000063085   -0.000018502   -0.000000000
 -------------------------------------------------------------------
 Cartesian Forces:  Max     0.000063085 RMS     0.000037445
 Leave Link  716 at Tue Jun  8 12:35:50 2021, MaxMem=   134217728 cpu:               0.4 elap:               0.0
 (Enter /APL/ISV/x86_64/gaussian/16/C.01/g16/l103.exe)

 GradGradGradGradGradGradGradGradGradGradGradGradGradGradGradGradGradGrad
 Berny optimization.
 Using GEDIIS/GDIIS optimizer.
 FormGI is forming the generalized inverse of G from B-inverse, IUseBI=4.
 Internal  Forces:  Max     0.000113657 RMS     0.000069561
 Search for a local minimum.
 Step number   4 out of a maximum of   20
 All quantities printed in internal units (Hartrees-Bohrs-Radians)
 RMS Force = .69561D-04 SwitMx=.10000D-02 MixMth= 2
 Mixed Optimization -- En-DIIS/RFO-DIIS
 Swapping is turned off.
 Update second derivatives using D2CorX and points    1    2    3    4
 DE= -2.01D-06 DEPred=-1.80D-06 R= 1.12D+00
 TightC=F SS=  1.41D+00  RLast= 4.46D-03 DXNew= 7.5211D-01 1.3384D-02
 Trust test= 1.12D+00 RLast= 4.46D-03 DXMaxT set to 4.47D-01
 The second derivative matrix:
                          R1        R2        A1
           R1           0.48118
           R2          -0.05509   0.48118
           A1           0.02500   0.02500   0.13835
 ITU=  1  1  1  0
     Eigenvalues ---    0.13407   0.43037   0.53627
 En-DIIS/RFO-DIIS/Sim-DIIS IScMMF=       -3 using points:     4    3
 RFO step:  Lambda=-9.36578236D-08.
 NNeg= 0 NGDIIS= 2 SimSw=  2.50D-01 Rises=F DC= -2.01D-06 SmlDif=  1.00D-05
 NRisDI= 0 DoIntr=F SqrtH=F CThrHd= 10.0 CDAdj=  3.0
 RMS Error=  0.4706765153D-03 NUsed= 2 OKEnD=F EnDIS=F
 InvSVX:  RCond= 4.98D-06 Info=           0 Equed=N FErr=  1.25D-15 BErr=  3.88D-17
 DidBck=F Rises=F RFO-DIIS coefs:    1.16270   -0.16270
 Iteration  1 RMS(Cart)=  0.00048419 RMS(Int)=  0.00000013
 Iteration  2 RMS(Cart)=  0.00000011 RMS(Int)=  0.00000000
 ITry= 1 IFail=0 DXMaxC= 4.80D-04 DCOld= 1.00D+10 DXMaxT= 4.47D-01 DXLimC= 3.00D+00 Rises=F
 ClnCor:  largest displacement from symmetrization is 1.71D-14 for atom     3.
 Variable       Old X    -DE/DX   Delta X   Delta X   Delta X     New X
                                 (Linear)    (Quad)   (Total)
    R1        1.91492  -0.00003   0.00022  -0.00024  -0.00002   1.91490
    R2        1.91492  -0.00003   0.00022  -0.00024  -0.00002   1.91490
    A1        1.88925  -0.00011  -0.00066  -0.00016  -0.00081   1.88844
         Item               Value     Threshold  Converged?
 Maximum Force            0.000114     0.000450     YES
 RMS     Force            0.000070     0.000300     YES
 Maximum Displacement     0.000480     0.001800     YES
 RMS     Displacement     0.000484     0.001200     YES
 Predicted change in Energy=-4.682891D-08
 Optimization completed.
    -- Stationary point found.
                           ----------------------------
                           !   Optimized Parameters   !
                           ! (Angstroms and Degrees)  !
 --------------------------                            --------------------------
 ! Name  Definition              Value          Derivative Info.                !
 --------------------------------------------------------------------------------
 ! R1    R(1,2)                  1.0133         -DE/DX =    0.0                 !
 ! R2    R(1,3)                  1.0133         -DE/DX =    0.0                 !
 ! A1    A(2,1,3)              108.2461         -DE/DX =   -0.0001              !
 --------------------------------------------------------------------------------
 Lowest energy point so far.  Saving SCF results.
 Largest change from initial coordinates is atom    3       0.065 Angstoms.
 GradGradGradGradGradGradGradGradGradGradGradGradGradGradGradGradGradGrad

 Leave Link  103 at Tue Jun  8 12:35:50 2021, MaxMem=   134217728 cpu:               0.2 elap:               0.0
 (Enter /APL/ISV/x86_64/gaussian/16/C.01/g16/l202.exe)
                          Input orientation:                          
 ---------------------------------------------------------------------
 Center     Atomic      Atomic             Coordinates (Angstroms)
 Number     Number       Type             X           Y           Z
 ---------------------------------------------------------------------
      1          8           0        0.220051    0.220051    0.000000
      2          1           0        1.220567    0.059382   -0.000000
      3          1           0        0.059382    1.220567    0.000000
 ---------------------------------------------------------------------
                    Distance matrix (angstroms):
                    1          2          3
     1  O    0.000000
     2  H    1.013334   0.000000
     3  H    1.013334   1.642163   0.000000
 Stoichiometry    H2O(1+,2)
 Framework group  C2V[C2(O),SGV(H2)]
 Deg. of freedom     2
 Full point group                 C2V     NOp   4
 RotChk:  IX=0 Diff= 1.33D-15
 Largest Abelian subgroup         C2V     NOp   4
 Largest concise Abelian subgroup C2      NOp   2
                         Standard orientation:                         
 ---------------------------------------------------------------------
 Center     Atomic      Atomic             Coordinates (Angstroms)
 Number     Number       Type             X           Y           Z
 ---------------------------------------------------------------------
      1          8           0        0.000000    0.000000    0.118772
      2          1           0       -0.000000    0.821081   -0.475089
      3          1           0       -0.000000   -0.821081   -0.475089
 ---------------------------------------------------------------------
 Rotational constants (GHZ):         800.5305270         371.9029477         253.9330965
 Leave Link  202 at Tue Jun  8 12:35:50 2021, MaxMem=   134217728 cpu:               0.2 elap:               0.0
 (Enter /APL/ISV/x86_64/gaussian/16/C.01/g16/l601.exe)
 Copying SCF densities to generalized density rwf, IOpCl= 1 IROHF=0.

 **********************************************************************

            Population analysis using the SCF Density.

 **********************************************************************

 Orbital symmetries:
 Alpha Orbitals:
       Occupied  (A1) (A1) (B2) (B1) (A1)
       Virtual   (A1) (B2) (B2) (A1) (B1) (A1) (B2) (A2) (A1) (B1)
                 (A1) (B2) (B2) (A1) (B1) (A2) (A1) (A1) (B2)
 Beta  Orbitals:
       Occupied  (A1) (A1) (B2) (A1)
       Virtual   (B1) (A1) (B2) (B2) (A1) (A1) (B1) (B2) (A2) (A1)
                 (B1) (A1) (B2) (B2) (A1) (B1) (A2) (A1) (A1) (B2)
 The electronic state is 2-B1.
 Alpha  occ. eigenvalues --  -19.70213  -1.50579  -0.98342  -0.86631  -0.85041
 Alpha virt. eigenvalues --   -0.29926  -0.22102   0.17931   0.18549   0.42917
 Alpha virt. eigenvalues --    0.47076   0.58963   0.79441   0.83837   1.02449
 Alpha virt. eigenvalues --    1.15082   1.21445   1.58642   1.58650   2.31793
 Alpha virt. eigenvalues --    2.38667   2.54891   2.93203   3.18509
  Beta  occ. eigenvalues --  -19.67455  -1.43296  -0.96203  -0.82047
  Beta virt. eigenvalues --   -0.60106  -0.28839  -0.21469   0.17781   0.19114
  Beta virt. eigenvalues --    0.48432   0.52551   0.60113   0.80815   0.84727
  Beta virt. eigenvalues --    1.04087   1.19070   1.21133   1.59173   1.62267
  Beta virt. eigenvalues --    2.39503   2.46434   2.57840   2.99628   3.19802
          Condensed to atoms (all electrons):
               1          2          3
     1  O    7.008227   0.321432   0.321432
     2  H    0.321432   0.363269  -0.010245
     3  H    0.321432  -0.010245   0.363269
          Atomic-Atomic Spin Densities.
               1          2          3
     1  O    1.054758  -0.001207  -0.001207
     2  H   -0.001207  -0.026235   0.001270
     3  H   -0.001207   0.001270  -0.026235
 Mulliken charges and spin densities:
               1          2
     1  O    0.348910   1.052343
     2  H    0.325545  -0.026172
     3  H    0.325545  -0.026172
 Sum of Mulliken charges =   1.00000   1.00000
 Mulliken charges and spin densities with hydrogens summed into heavy atoms:
               1          2
     1  O    1.000000   1.000000
 Electronic spatial extent (au):  <R**2>=             14.8140
 Charge=              1.0000 electrons
 Dipole moment (field-independent basis, Debye):
    X=             -0.0000    Y=             -0.0000    Z=             -2.2268  Tot=              2.2268
 Quadrupole moment (field-independent basis, Debye-Ang):
   XX=             -4.7391   YY=             -1.6704   ZZ=             -4.3292
   XY=              0.0000   XZ=              0.0000   YZ=              0.0000
 Traceless Quadrupole moment (field-independent basis, Debye-Ang):
   XX=             -1.1595   YY=              1.9092   ZZ=             -0.7496
   XY=              0.0000   XZ=              0.0000   YZ=              0.0000
 Octapole moment (field-independent basis, Debye-Ang**2):
  XXX=              0.0000  YYY=             -0.0000  ZZZ=             -1.3925  XYY=             -0.0000
  XXY=              0.0000  XXZ=             -0.2005  XZZ=             -0.0000  YZZ=             -0.0000
  YYZ=             -2.0250  XYZ=             -0.0000
 Hexadecapole moment (field-independent basis, Debye-Ang**3):
 XXXX=             -2.6089 YYYY=             -2.5210 ZZZZ=             -4.2759 XXXY=             -0.0000
 XXXZ=             -0.0000 YYYX=              0.0000 YYYZ=              0.0000 ZZZX=             -0.0000
 ZZZY=             -0.0000 XXYY=             -1.3465 XXZZ=             -1.1975 YYZZ=             -0.6615
 XXYZ=             -0.0000 YYXZ=              0.0000 ZZXY=              0.0000
 N-N= 8.677669264044D+00 E-N=-1.928405530376D+02  KE= 7.552699418668D+01
 Symmetry A1   KE= 6.881615534018D+01
 Symmetry A2   KE= 1.613944789951D-34
 Symmetry B1   KE= 2.708635203041D+00
 Symmetry B2   KE= 4.002203643467D+00
 Symmetry A1   SP= 9.713544274241D-15
 Symmetry A2   SP= 9.701743526089D-36
 Symmetry B1   SP= 1.000000000000D+00
 Symmetry B2   SP= 4.452571407642D-15
                          Isotropic Fermi Contact Couplings
        Atom                 a.u.       MegaHertz       Gauss      10(-4) cm-1
     1  O(17)              0.20640    -125.11980     -44.64586     -41.73547
     2  H(1)              -0.01375     -61.47273     -21.93500     -20.50510
     3  H(1)              -0.01375     -61.47273     -21.93500     -20.50510
 --------------------------------------------------------
       Center         ----  Spin Dipole Couplings  ----
                      3XX-RR        3YY-RR        3ZZ-RR
 --------------------------------------------------------
     1   Atom        3.976363     -1.961081     -2.015283
     2   Atom       -0.047470      0.072745     -0.025276
     3   Atom       -0.047470      0.072745     -0.025276
 --------------------------------------------------------
                        XY            XZ            YZ
 --------------------------------------------------------
     1   Atom       -0.000000     -0.000000      0.000000
     2   Atom       -0.000000     -0.000000     -0.134900
     3   Atom        0.000000      0.000000      0.134900
 --------------------------------------------------------


 ---------------------------------------------------------------------------------
              Anisotropic Spin Dipole Couplings in Principal Axis System
 ---------------------------------------------------------------------------------

       Atom             a.u.   MegaHertz   Gauss  10(-4) cm-1        Axes

              Baa    -2.0153   145.824    52.034    48.642  0.0000 -0.0000  1.0000
     1 O(17)  Bbb    -1.9611   141.902    50.634    47.334  0.0000  1.0000  0.0000
              Bcc     3.9764  -287.727  -102.668   -95.975  1.0000 -0.0000 -0.0000
 
              Baa    -0.1198   -63.915   -22.807   -21.320  0.0000  0.5738  0.8190
     2 H(1)   Bbb    -0.0475   -25.328    -9.038    -8.448  1.0000 -0.0000  0.0000
              Bcc     0.1673    89.243    31.844    29.768  0.0000  0.8190 -0.5738
 
              Baa    -0.1198   -63.915   -22.807   -21.320 -0.0000 -0.5738  0.8190
     3 H(1)   Bbb    -0.0475   -25.328    -9.038    -8.448  1.0000 -0.0000  0.0000
              Bcc     0.1673    89.243    31.844    29.768  0.0000  0.8190  0.5738
 

 ---------------------------------------------------------------------------------

 No NMR shielding tensors so no spin-rotation constants.
 Leave Link  601 at Tue Jun  8 12:35:50 2021, MaxMem=   134217728 cpu:               2.2 elap:               0.2
 (Enter /APL/ISV/x86_64/gaussian/16/C.01/g16/l9999.exe)
 Unable to Open any file for archive entry.
 1\1\GINC-LEMON\FOpt\UB3LYP\CC-pVDZ\H2O1(1+,2)\YAGI\08-Jun-2021\0\\#P B
 3LYP/cc-pVDZ opt geom=checkpoint\\B3LYP/cc-pVDZ water +1\\1,2\O,0.2200
 512541,0.2200512541,0.\H,1.2205666068,0.0593821391,0.\H,0.0593821391,1
 .2205666068,0.\\Version=ES64L-G16RevC.01\State=2-B1\HF=-75.9729623\S2=
 0.752545\S2-1=0.\S2A=0.750004\RMSD=5.230e-09\RMSF=3.745e-05\Dipole=0.6
 194883,0.6194883,0.\Quadrupole=0.4310341,0.4310341,-0.8620681,-0.98837
 76,0.,0.\PG=C02V [C2(O1),SGV(H2)]\\@
 The archive entry for this job was punched.


 IT WAS AN ACT OF DESPARATION. FOR SIX YEARS I HAD STRUGGLED WITH THE
 BLACKBODY THEORY. I KNEW THE PROBLEM WAS FUNDAMENTAL, AND I KNEW
 THE ANSWER. I HAD TO FIND A THEORETICAL EXPLANATION AT ANY COST,
 EXCEPT FOR THE INVIOLABLITY OF THE TWO LAWS OF THERMODYNAMICS.
   -- MAX PLANCK, 1931
 Job cpu time:       0 days  0 hours  0 minutes 54.6 seconds.
 Elapsed time:       0 days  0 hours  0 minutes  4.7 seconds.
 File lengths (MBytes):  RWF=      6 Int=      0 D2E=      0 Chk=      1 Scr=      1
 Normal termination of Gaussian 16 at Tue Jun  8 12:35:50 2021.

real	0m4.910s
user	0m51.338s
sys	0m3.236s
