B3LYP/cc-pVDZ water +1                                                  
FOpt      UB3LYP                                                      CC-pVDZ             
Number of atoms                            I                3
Info1-9                                    I   N=           9
          10          10           0           0           0         110
           2          18        -502
Full Title                                 C   N=           2
B3LYP/cc-pVDZ water +1  
Route                                      C   N=           3
#P B3LYP/cc-pVDZ opt geom=checkpoint
Charge                                     I                1
Multiplicity                               I                2
Number of electrons                        I                9
Number of alpha electrons                  I                5
Number of beta electrons                   I                4
Number of basis functions                  I               24
Number of independent functions            I               24
Number of point charges in /Mol/           I                0
Number of translation vectors              I                0
Atomic numbers                             I   N=           3
           8           1           1
Nuclear charges                            R   N=           3
  8.00000000E+00  1.00000000E+00  1.00000000E+00
Current cartesian coordinates              R   N=           9
 -3.85185989E-32  6.58479093E-17  2.24446918E-01 -1.97215226E-31  1.55161899E+00
 -8.97787671E-01 -1.90018523E-16 -1.55161899E+00 -8.97787671E-01
Number of symbols in /Mol/                 I                0
Int Atom Types                             I   N=           3
           0           0           0
Force Field                                I                0
Atom Types                                 C   N=           3
                                    
MM charges                                 R   N=           3
  0.00000000E+00  0.00000000E+00  0.00000000E+00
Integer atomic weights                     I   N=           3
          16           1           1
Real atomic weights                        R   N=           3
  1.59949146E+01  1.00782504E+00  1.00782504E+00
Atom fragment info                         I   N=           3
           0           0           0
Atom residue num                           I   N=           3
           0           0           0
Nuclear spins                              I   N=           3
           0           1           1
Nuclear ZEff                               R   N=           3
 -5.60000000E+00 -1.00000000E+00 -1.00000000E+00
Nuclear ZNuc                               R   N=           3
  8.00000000E+00  1.00000000E+00  1.00000000E+00
Nuclear QMom                               R   N=           3
  0.00000000E+00  0.00000000E+00  0.00000000E+00
Nuclear GFac                               R   N=           3
  0.00000000E+00  2.79284600E+00  2.79284600E+00
MicOpt                                     I   N=           3
          -1          -1          -1
Number of residues                         I                0
Number of secondary structures             I                0
Redundant internal dimensions              I   N=           4
           3           2           1           0
Redundant internal coordinate indices      I   N=          12
           1           2           0           0           1           3
           0           0           2           1           3           0
Redundant internal coordinates             R   N=           3
  1.91492349E+00  1.91492349E+00  1.88925019E+00
ZRed-IntVec                                I   N=           3
           0           0           0
ZRed-FPVec                                 R   N=           3
  0.00000000E+00  0.00000000E+00  0.00000000E+00
ZRed-Constraint1                           R   N=           3
  1.83073326E+00  1.83073326E+00  1.79290738E+00
ZRed-Constraint2                           R   N=           3
  2.83458919E+00  2.83458919E+00  1.57079633E+00
SymInf integers                            I   N=          26
           2           4           1           1           1          -1
          -1           1          -1           1           1           1
          -1           1           0           0           0           0
           0           0           0           0           0           0
           0           0
RotTr to input orientation                 R   N=          12
 -1.73191211E-16  2.59786817E-16 -1.00000000E+00  7.07106781E-01 -7.07106781E-01
 -3.06161700E-16 -7.07106781E-01 -7.07106781E-01 -6.12323400E-17  5.74544541E-01
  5.74544541E-01  2.46898542E-16
Number of contracted shells                I               12
Number of primitive shells                 I               30
Pure/Cartesian d shells                    I                0
Pure/Cartesian f shells                    I                0
Highest angular momentum                   I                2
Largest degree of contraction              I                7
Shell types                                I   N=          12
           0           0           0           1           1          -2
           0           0           1           0           0           1
Number of primitives per shell             I   N=          12
           7           7           1           3           1           1
           3           1           1           3           1           1
Shell to atom map                          I   N=          12
           1           1           1           1           1           1
           2           2           2           3           3           3
Primitive exponents                        R   N=          30
  1.17200000E+04  1.75900000E+03  4.00800000E+02  1.13700000E+02  3.70300000E+01
  1.32700000E+01  5.02500000E+00  1.17200000E+04  4.00800000E+02  1.13700000E+02
  3.70300000E+01  1.32700000E+01  5.02500000E+00  1.01300000E+00  3.02300000E-01
  1.77000000E+01  3.85400000E+00  1.04600000E+00  2.75300000E-01  1.18500000E+00
  1.30100000E+01  1.96200000E+00  4.44600000E-01  1.22000000E-01  7.27000000E-01
  1.30100000E+01  1.96200000E+00  4.44600000E-01  1.22000000E-01  7.27000000E-01
Contraction coefficients                   R   N=          30
  7.11864434E-04  5.48520199E-03  2.79099296E-02  1.05133208E-01  2.84002490E-01
  4.51673946E-01  2.73208126E-01  7.69030046E-06  3.13484579E-04 -2.96614853E-03
 -1.08753543E-02 -1.20753817E-01 -1.06275264E-01  1.09597548E+00  1.00000000E+00
  6.26791663E-02  3.33536566E-01  7.41239642E-01  1.00000000E+00  1.00000000E+00
  3.34987264E-02  2.34800801E-01  8.13682958E-01  1.00000000E+00  1.00000000E+00
  3.34987264E-02  2.34800801E-01  8.13682958E-01  1.00000000E+00  1.00000000E+00
Coordinates of each shell                  R   N=          36
 -6.16297582E-33 -2.59950269E-17  2.24446918E-01 -6.16297582E-33 -2.59950269E-17
  2.24446918E-01 -6.16297582E-33 -2.59950269E-17  2.24446918E-01 -6.16297582E-33
 -2.59950269E-17  2.24446918E-01 -6.16297582E-33 -2.59950269E-17  2.24446918E-01
 -6.16297582E-33 -2.59950269E-17  2.24446918E-01 -2.46519033E-31  1.55161899E+00
 -8.97787671E-01 -2.46519033E-31  1.55161899E+00 -8.97787671E-01 -2.46519033E-31
  1.55161899E+00 -8.97787671E-01 -1.90018523E-16 -1.55161899E+00 -8.97787671E-01
 -1.90018523E-16 -1.55161899E+00 -8.97787671E-01 -1.90018523E-16 -1.55161899E+00
 -8.97787671E-01
Num ILSW                                   I              100
ILSW                                       I   N=         100
           1           0           0           1           2           0
           0           0           0           0         402          -1
           5           0           0           0           2           0
           0           0           0           0           1           0
           1           0           0           0           0           0
           0           0      100000           0          -1           0
           0           0           0           0           0           0
           0           0           0           1           0           0
           0 -2000000000           1           0           0           0
           0           0           4          52           0           0
           0           0           5           0           0           0
           0           0           0           3           0           1
           0           0           0           0           0           0
           0           0           0           0           0           0
           0           0           0           0           0           0
           0           0           0           0           0           0
           0           0           0           0
Num RLSW                                   I               52
RLSW                                       R   N=          52
  8.00000000E-01  7.20000000E-01  1.00000000E+00  8.10000000E-01  2.00000000E-01
  0.00000000E+00  0.00000000E+00  1.00000000E+00  0.00000000E+00  0.00000000E+00
  0.00000000E+00  0.00000000E+00  1.00000000E+00  0.00000000E+00  0.00000000E+00
  0.00000000E+00  0.00000000E+00  1.00000000E+00  0.00000000E+00  0.00000000E+00
  0.00000000E+00  0.00000000E+00  1.00000000E+00  0.00000000E+00  0.00000000E+00
  0.00000000E+00  0.00000000E+00  1.00000000E+00  0.00000000E+00  0.00000000E+00
  0.00000000E+00  0.00000000E+00  1.00000000E+00  0.00000000E+00  0.00000000E+00
  0.00000000E+00  0.00000000E+00  0.00000000E+00  1.00000000E+00  1.00000000E+00
  0.00000000E+00  1.00000000E+00  0.00000000E+00  0.00000000E+00  0.00000000E+00
  0.00000000E+00  0.00000000E+00  0.00000000E+00  0.00000000E+00  0.00000000E+00
  0.00000000E+00  0.00000000E+00
MxBond                                     I                2
NBond                                      I   N=           3
           2           1           1
IBond                                      I   N=           6
           2           3           1           0           1           0
RBond                                      R   N=           6
  1.00000000E-01  1.00000000E-01  1.00000000E-01  0.00000000E+00  1.00000000E-01
  0.00000000E+00
Virial Ratio                               R      2.005904750776856E+00
SCF Energy                                 R     -7.597296226428222E+01
Total Energy                               R     -7.597296226428222E+01
S**2                                       R      7.525447559428384E-01
S**2 after annihilation                    R      7.500039988128237E-01
RMS Force                                  R      3.744509513216184E-05
RMS Density                                R      5.230153251527919E-09
Job Status                                 I                1
Nuclear derivative order                   I                1
External E-field                           R   N=          35
  0.00000000E+00  0.00000000E+00  0.00000000E+00  0.00000000E+00  0.00000000E+00
  0.00000000E+00  0.00000000E+00  0.00000000E+00  0.00000000E+00  0.00000000E+00
  0.00000000E+00  0.00000000E+00  0.00000000E+00  0.00000000E+00  0.00000000E+00
  0.00000000E+00  0.00000000E+00  0.00000000E+00  0.00000000E+00  0.00000000E+00
  0.00000000E+00  0.00000000E+00  0.00000000E+00  0.00000000E+00  0.00000000E+00
  0.00000000E+00  0.00000000E+00  0.00000000E+00  0.00000000E+00  0.00000000E+00
  0.00000000E+00  0.00000000E+00  0.00000000E+00  0.00000000E+00  0.00000000E+00
IOpCl                                      I                1
IROHF                                      I                0
Alpha Orbital Energies                     R   N=          24
 -1.97021294E+01 -1.50578971E+00 -9.83424251E-01 -8.66314619E-01 -8.50407526E-01
 -2.99259402E-01 -2.21022723E-01  1.79309744E-01  1.85491599E-01  4.29169994E-01
  4.70756521E-01  5.89634695E-01  7.94407306E-01  8.38366558E-01  1.02448689E+00
  1.15081746E+00  1.21445381E+00  1.58641716E+00  1.58650219E+00  2.31793021E+00
  2.38666649E+00  2.54890551E+00  2.93203369E+00  3.18509015E+00
Beta Orbital Energies                      R   N=          24
 -1.96745540E+01 -1.43295940E+00 -9.62033128E-01 -8.20473523E-01 -6.01055069E-01
 -2.88385648E-01 -2.14686762E-01  1.77807607E-01  1.91136843E-01  4.84316185E-01
  5.25508203E-01  6.01133544E-01  8.08154967E-01  8.47265019E-01  1.04087227E+00
  1.19070092E+00  1.21133241E+00  1.59172872E+00  1.62266734E+00  2.39503180E+00
  2.46433701E+00  2.57840426E+00  2.99628217E+00  3.19801643E+00
Alpha MO coefficients                      R   N=         576
  9.96335438E-01  2.21943817E-02 -7.94993999E-03  0.00000000E+00  0.00000000E+00
 -1.73230435E-03  0.00000000E+00  0.00000000E+00  1.15262069E-03 -1.94395557E-04
  0.00000000E+00  0.00000000E+00 -2.76906286E-06  0.00000000E+00  1.14891671E-04
  1.08244393E-03  0.00000000E+00  6.15478563E-04 -6.08523988E-04  1.14891671E-04
  1.08244393E-03  0.00000000E+00 -6.15478563E-04 -6.08523988E-04 -2.16533094E-01
  4.97796666E-01  3.94271590E-01  0.00000000E+00  0.00000000E+00 -1.09327226E-01
  0.00000000E+00  0.00000000E+00 -1.21650675E-02 -5.33475331E-03  0.00000000E+00
  0.00000000E+00  8.03762598E-03  0.00000000E+00  1.55774598E-01 -5.09205511E-03
  0.00000000E+00 -3.50952970E-02  1.82702407E-02  1.55774598E-01 -5.09205511E-03
  0.00000000E+00  3.50952970E-02  1.82702407E-02  0.00000000E+00  0.00000000E+00
  0.00000000E+00  0.00000000E+00  5.72067535E-01  0.00000000E+00  0.00000000E+00
  2.17764235E-01  0.00000000E+00  0.00000000E+00  0.00000000E+00 -2.24976361E-02
  0.00000000E+00  0.00000000E+00  2.96490013E-01  2.88559432E-02  0.00000000E+00
 -2.58816315E-02  3.15721964E-02 -2.96490013E-01 -2.88559432E-02  0.00000000E+00
 -2.58816315E-02 -3.15721964E-02  0.00000000E+00  0.00000000E+00  0.00000000E+00
  7.21430437E-01  0.00000000E+00  0.00000000E+00  4.01888943E-01  0.00000000E+00
  0.00000000E+00  0.00000000E+00 -2.14279642E-02  0.00000000E+00  0.00000000E+00
  0.00000000E+00  0.00000000E+00  0.00000000E+00  2.40207206E-02  0.00000000E+00
  0.00000000E+00  0.00000000E+00  0.00000000E+00  2.40207206E-02  0.00000000E+00
  0.00000000E+00 -6.90387221E-02  1.60665999E-01  2.81305791E-01  0.00000000E+00
  0.00000000E+00  6.23061426E-01  0.00000000E+00  0.00000000E+00  3.22607428E-01
 -2.38486858E-02  0.00000000E+00  0.00000000E+00  5.61453550E-03  0.00000000E+00
 -1.84221550E-01 -2.17374658E-02  0.00000000E+00  3.28562427E-02  8.26702014E-03
 -1.84221550E-01 -2.17374658E-02  0.00000000E+00 -3.28562427E-02  8.26702014E-03
 -8.79872258E-02  2.15964320E-01  7.10490268E-01  0.00000000E+00  0.00000000E+00
 -2.86861191E-01  0.00000000E+00  0.00000000E+00 -2.50413995E-01  4.76471740E-03
  0.00000000E+00  0.00000000E+00  1.68898394E-02  0.00000000E+00 -2.66175071E-01
 -6.23225448E-01  0.00000000E+00 -2.33435374E-02  6.61930202E-03 -2.66175071E-01
 -6.23225448E-01  0.00000000E+00  2.33435374E-02  6.61930202E-03  0.00000000E+00
  0.00000000E+00  0.00000000E+00  0.00000000E+00 -4.44113268E-01  0.00000000E+00
  0.00000000E+00 -5.01750201E-01  0.00000000E+00  0.00000000E+00  0.00000000E+00
 -1.52170606E-02  0.00000000E+00  0.00000000E+00  3.13945333E-01  9.47751141E-01
  0.00000000E+00  1.39807787E-02 -2.60461272E-02 -3.13945333E-01 -9.47751141E-01
  0.00000000E+00  1.39807787E-02  2.60461272E-02  0.00000000E+00  0.00000000E+00
  0.00000000E+00  0.00000000E+00  2.28590553E-01  0.00000000E+00  0.00000000E+00
  1.86047229E-01  0.00000000E+00  0.00000000E+00  0.00000000E+00  1.03117328E-01
  0.00000000E+00  0.00000000E+00 -9.07818289E-01  1.08087689E+00  0.00000000E+00
 -1.10654481E-02  1.00671242E-01  9.07818289E-01 -1.08087689E+00  0.00000000E+00
 -1.10654481E-02 -1.00671242E-01  2.49837089E-02 -1.70991803E-01  3.03563045E-01
  0.00000000E+00  0.00000000E+00  3.09392285E-01  0.00000000E+00  0.00000000E+00
 -2.88623872E-02 -6.94059905E-03  0.00000000E+00  0.00000000E+00 -1.01267340E-01
  0.00000000E+00  8.61140672E-01 -7.24973004E-01  0.00000000E+00  1.64090268E-01
 -1.95310897E-03  8.61140672E-01 -7.24973004E-01  0.00000000E+00 -1.64090268E-01
 -1.95310897E-03  0.00000000E+00  0.00000000E+00  0.00000000E+00 -8.98843547E-01
  0.00000000E+00  0.00000000E+00  1.01888805E+00  0.00000000E+00  0.00000000E+00
  0.00000000E+00 -4.54431273E-03  0.00000000E+00  0.00000000E+00  0.00000000E+00
  0.00000000E+00  0.00000000E+00  6.98416692E-02  0.00000000E+00  0.00000000E+00
  0.00000000E+00  0.00000000E+00  6.98416692E-02  0.00000000E+00  0.00000000E+00
  4.40934944E-02 -1.23621723E-01 -4.86400738E-01  0.00000000E+00  0.00000000E+00
 -7.55097142E-01  0.00000000E+00  0.00000000E+00  1.18436581E+00 -1.94150493E-02
  0.00000000E+00  0.00000000E+00 -3.00478889E-02  0.00000000E+00  4.09205151E-01
  1.04614261E-01  0.00000000E+00 -2.66824212E-02  2.34072017E-01  4.09205151E-01
  1.04614261E-01  0.00000000E+00  2.66824212E-02  2.34072017E-01  0.00000000E+00
  0.00000000E+00  0.00000000E+00  0.00000000E+00 -7.34963845E-01  0.00000000E+00
  0.00000000E+00  1.73069534E+00  0.00000000E+00  0.00000000E+00  0.00000000E+00
  1.08442596E-02  0.00000000E+00  0.00000000E+00 -3.24043633E-01 -8.29582729E-01
  0.00000000E+00  2.59851653E-01 -5.60958017E-02  3.24043633E-01  8.29582729E-01
  0.00000000E+00  2.59851653E-01  5.60958017E-02  0.00000000E+00  0.00000000E+00
  0.00000000E+00  0.00000000E+00  0.00000000E+00  0.00000000E+00  0.00000000E+00
  0.00000000E+00  0.00000000E+00  0.00000000E+00  0.00000000E+00  0.00000000E+00
  0.00000000E+00  1.81580748E-01  0.00000000E+00  0.00000000E+00  6.64582225E-01
  0.00000000E+00  0.00000000E+00  0.00000000E+00  0.00000000E+00 -6.64582225E-01
  0.00000000E+00  0.00000000E+00  3.12654645E-02 -7.50669070E-01  9.09900002E-01
  0.00000000E+00  0.00000000E+00 -1.63143336E-01  0.00000000E+00  0.00000000E+00
  6.01601761E-01  1.58493490E-01  0.00000000E+00  0.00000000E+00  3.13793444E-02
  0.00000000E+00  2.26808596E-01 -2.77128499E-01  0.00000000E+00 -2.92452371E-01
 -5.07496803E-01  2.26808596E-01 -2.77128499E-01  0.00000000E+00  2.92452371E-01
 -5.07496803E-01  0.00000000E+00  0.00000000E+00  0.00000000E+00  8.45902599E-02
  0.00000000E+00  0.00000000E+00 -6.63168497E-01  0.00000000E+00  0.00000000E+00
  0.00000000E+00 -2.12524064E-01  0.00000000E+00  0.00000000E+00  0.00000000E+00
  0.00000000E+00  0.00000000E+00  7.40618349E-01  0.00000000E+00  0.00000000E+00
  0.00000000E+00  0.00000000E+00  7.40618349E-01  0.00000000E+00  0.00000000E+00
  1.21031954E-03 -1.57978125E+00  2.69649545E+00  0.00000000E+00  0.00000000E+00
  6.42084687E-02  0.00000000E+00  0.00000000E+00 -9.77641094E-01 -1.59798301E-01
  0.00000000E+00  0.00000000E+00  1.18109709E-01  0.00000000E+00 -6.68006465E-01
 -3.81922041E-01  0.00000000E+00  3.38541887E-01  1.53684754E-01 -6.68006465E-01
 -3.81922041E-01  0.00000000E+00 -3.38541887E-01  1.53684754E-01  0.00000000E+00
  0.00000000E+00  0.00000000E+00  0.00000000E+00 -1.36543073E-01  0.00000000E+00
  0.00000000E+00  9.84486807E-01  0.00000000E+00  0.00000000E+00  0.00000000E+00
  2.81254971E-02  0.00000000E+00  0.00000000E+00 -4.05916974E-01 -1.09049515E-01
  0.00000000E+00 -4.29156142E-01 -6.68700259E-01  4.05916974E-01  1.09049515E-01
  0.00000000E+00 -4.29156142E-01  6.68700259E-01  0.00000000E+00  0.00000000E+00
  0.00000000E+00  0.00000000E+00  6.72172121E-01  0.00000000E+00  0.00000000E+00
  2.97786519E-01  0.00000000E+00  0.00000000E+00  0.00000000E+00  1.54786396E-01
  0.00000000E+00  0.00000000E+00 -1.76199423E-01 -4.32670747E-01  0.00000000E+00
  6.83966611E-01 -5.62901657E-01  1.76199423E-01  4.32670747E-01  0.00000000E+00
  6.83966611E-01  5.62901657E-01 -5.82358017E-02  3.93531432E-01  9.77448134E-01
  0.00000000E+00  0.00000000E+00 -5.15470864E-01  0.00000000E+00  0.00000000E+00
 -2.46966568E-01 -8.96742839E-02  0.00000000E+00  0.00000000E+00  2.53667820E-01
  0.00000000E+00 -3.54336988E-01 -2.38116401E-01  0.00000000E+00  7.62242641E-01
 -4.81249599E-01 -3.54336988E-01 -2.38116401E-01  0.00000000E+00 -7.62242641E-01
 -4.81249599E-01  0.00000000E+00  0.00000000E+00  0.00000000E+00  3.94450200E-02
  0.00000000E+00  0.00000000E+00 -2.96504677E-01  0.00000000E+00  0.00000000E+00
  0.00000000E+00  1.01542489E+00  0.00000000E+00  0.00000000E+00  0.00000000E+00
  0.00000000E+00  0.00000000E+00  3.84345054E-01  0.00000000E+00  0.00000000E+00
  0.00000000E+00  0.00000000E+00  3.84345054E-01  0.00000000E+00  0.00000000E+00
  0.00000000E+00  0.00000000E+00  0.00000000E+00  0.00000000E+00  0.00000000E+00
  0.00000000E+00  0.00000000E+00  0.00000000E+00  0.00000000E+00  0.00000000E+00
  0.00000000E+00  0.00000000E+00  0.00000000E+00  1.04298790E+00  0.00000000E+00
  0.00000000E+00 -3.69009426E-01  0.00000000E+00  0.00000000E+00  0.00000000E+00
  0.00000000E+00  3.69009426E-01  0.00000000E+00  0.00000000E+00 -2.23412265E-02
 -1.78881225E-01  7.24084873E-01  0.00000000E+00  0.00000000E+00 -1.63181714E-02
  0.00000000E+00  0.00000000E+00 -5.89751940E-01  1.04568900E+00  0.00000000E+00
  0.00000000E+00  2.86284618E-02  0.00000000E+00 -3.61522779E-01 -6.76683484E-02
  0.00000000E+00  4.18714169E-01  2.64239433E-01 -3.61522779E-01 -6.76683484E-02
  0.00000000E+00 -4.18714169E-01  2.64239433E-01 -7.05944217E-02 -3.20357138E-01
  2.16107686E+00  0.00000000E+00  0.00000000E+00 -3.05913939E-01  0.00000000E+00
  0.00000000E+00 -8.38271209E-01 -2.40920524E-02  0.00000000E+00  0.00000000E+00
 -1.15388955E+00  0.00000000E+00 -1.05322202E+00 -2.20792342E-01  0.00000000E+00
  6.39285281E-01 -5.03736423E-01 -1.05322202E+00 -2.20792342E-01  0.00000000E+00
 -6.39285281E-01 -5.03736423E-01  0.00000000E+00  0.00000000E+00  0.00000000E+00
  0.00000000E+00 -3.43461653E-01  0.00000000E+00  0.00000000E+00 -1.16644147E+00
  0.00000000E+00  0.00000000E+00  0.00000000E+00  1.28444445E+00  0.00000000E+00
  0.00000000E+00  9.30815563E-01  3.15882425E-01  0.00000000E+00 -6.05682780E-01
  4.64649770E-01 -9.30815563E-01 -3.15882425E-01  0.00000000E+00 -6.05682780E-01
 -4.64649770E-01
Beta MO coefficients                       R   N=         576
  9.96581105E-01  2.05577268E-02 -6.91309643E-03  0.00000000E+00  0.00000000E+00
 -1.66909581E-03  0.00000000E+00  0.00000000E+00  8.60977874E-04  1.49910881E-04
  0.00000000E+00  0.00000000E+00 -6.23569222E-04  0.00000000E+00 -1.37327098E-04
  9.59414850E-04  0.00000000E+00  7.03970328E-04 -6.25555395E-04 -1.37327098E-04
  9.59414850E-04  0.00000000E+00 -7.03970328E-04 -6.25555395E-04 -2.10553507E-01
  4.72015791E-01  3.82972241E-01  0.00000000E+00  0.00000000E+00 -1.14074202E-01
  0.00000000E+00  0.00000000E+00 -8.10723279E-03  5.91488020E-03  0.00000000E+00
  0.00000000E+00 -1.10020368E-02  0.00000000E+00  1.80108719E-01 -8.87398881E-04
  0.00000000E+00 -3.82146798E-02  1.86584157E-02  1.80108719E-01 -8.87398881E-04
  0.00000000E+00  3.82146798E-02  1.86584157E-02  0.00000000E+00  0.00000000E+00
  0.00000000E+00  0.00000000E+00  5.51950395E-01  0.00000000E+00  0.00000000E+00
  2.09593788E-01  0.00000000E+00  0.00000000E+00  0.00000000E+00 -2.14260431E-02
  0.00000000E+00  0.00000000E+00  3.14826359E-01  3.69082153E-02  0.00000000E+00
 -2.60067487E-02  3.27095341E-02 -3.14826359E-01 -3.69082153E-02  0.00000000E+00
 -2.60067487E-02 -3.27095341E-02 -7.46485198E-02  1.67799171E-01  3.03894701E-01
  0.00000000E+00  0.00000000E+00  6.07453633E-01  0.00000000E+00  0.00000000E+00
  3.29626108E-01 -1.82509740E-02  0.00000000E+00  0.00000000E+00 -1.66431732E-03
  0.00000000E+00 -1.86346302E-01 -2.39647615E-02  0.00000000E+00  3.25609576E-02
  1.02172328E-02 -1.86346302E-01 -2.39647615E-02  0.00000000E+00 -3.25609576E-02
  1.02172328E-02  0.00000000E+00  0.00000000E+00  0.00000000E+00  6.43705002E-01
  0.00000000E+00  0.00000000E+00  4.82797433E-01  0.00000000E+00  0.00000000E+00
  0.00000000E+00 -1.80696877E-02  0.00000000E+00  0.00000000E+00  0.00000000E+00
  0.00000000E+00  0.00000000E+00  3.37793431E-02  0.00000000E+00  0.00000000E+00
  0.00000000E+00  0.00000000E+00  3.37793431E-02  0.00000000E+00  0.00000000E+00
 -9.16272331E-02  2.06953499E-01  7.41808524E-01  0.00000000E+00  0.00000000E+00
 -2.86953195E-01  0.00000000E+00  0.00000000E+00 -2.57395252E-01  9.67820508E-03
  0.00000000E+00  0.00000000E+00  7.21268581E-03  0.00000000E+00 -2.52561280E-01
 -6.35470863E-01  0.00000000E+00 -2.60703458E-02  7.13922917E-03 -2.52561280E-01
 -6.35470863E-01  0.00000000E+00  2.60703458E-02  7.13922917E-03  0.00000000E+00
  0.00000000E+00  0.00000000E+00  0.00000000E+00 -4.47185783E-01  0.00000000E+00
  0.00000000E+00 -5.18413469E-01  0.00000000E+00  0.00000000E+00  0.00000000E+00
 -1.46174743E-02  0.00000000E+00  0.00000000E+00  3.02565450E-01  9.58230257E-01
  0.00000000E+00  1.55283573E-02 -2.83905097E-02 -3.02565450E-01 -9.58230257E-01
  0.00000000E+00  1.55283573E-02  2.83905097E-02  0.00000000E+00  0.00000000E+00
  0.00000000E+00  0.00000000E+00  2.32575169E-01  0.00000000E+00  0.00000000E+00
  1.97217403E-01  0.00000000E+00  0.00000000E+00  0.00000000E+00  1.01717558E-01
  0.00000000E+00  0.00000000E+00 -9.07242132E-01  1.07355526E+00  0.00000000E+00
 -1.15783279E-02  1.02996043E-01  9.07242132E-01 -1.07355526E+00  0.00000000E+00
 -1.15783279E-02 -1.02996043E-01  2.90852326E-02 -1.78986400E-01  2.93958053E-01
  0.00000000E+00  0.00000000E+00  3.11745978E-01  0.00000000E+00  0.00000000E+00
 -2.46646974E-02 -1.35104555E-02  0.00000000E+00  0.00000000E+00 -9.03238352E-02
  0.00000000E+00  8.60491617E-01 -7.18124450E-01  0.00000000E+00  1.73260275E-01
 -2.35290675E-03  8.60491617E-01 -7.18124450E-01  0.00000000E+00 -1.73260275E-01
 -2.35290675E-03  4.56060764E-02 -1.19149958E-01 -5.04683545E-01  0.00000000E+00
  0.00000000E+00 -7.59088817E-01  0.00000000E+00  0.00000000E+00  1.16809561E+00
 -2.62118908E-02  0.00000000E+00  0.00000000E+00 -2.11111633E-02  0.00000000E+00
  4.04690203E-01  1.10421551E-01  0.00000000E+00 -2.15092787E-02  2.45287725E-01
  4.04690203E-01  1.10421551E-01  0.00000000E+00  2.15092787E-02  2.45287725E-01
  0.00000000E+00  0.00000000E+00  0.00000000E+00 -9.54800410E-01  0.00000000E+00
  0.00000000E+00  9.70055565E-01  0.00000000E+00  0.00000000E+00  0.00000000E+00
 -5.16315391E-03  0.00000000E+00  0.00000000E+00  0.00000000E+00  0.00000000E+00
  0.00000000E+00  8.01954183E-02  0.00000000E+00  0.00000000E+00  0.00000000E+00
  0.00000000E+00  8.01954183E-02  0.00000000E+00  0.00000000E+00  0.00000000E+00
  0.00000000E+00  0.00000000E+00  0.00000000E+00 -7.37284784E-01  0.00000000E+00
  0.00000000E+00  1.72178220E+00  0.00000000E+00  0.00000000E+00  0.00000000E+00
  8.56527290E-03  0.00000000E+00  0.00000000E+00 -3.19952566E-01 -8.28736549E-01
  0.00000000E+00  2.68736579E-01 -5.69740881E-02  3.19952566E-01  8.28736549E-01
  0.00000000E+00  2.68736579E-01  5.69740881E-02  0.00000000E+00  0.00000000E+00
  0.00000000E+00  0.00000000E+00  0.00000000E+00  0.00000000E+00  0.00000000E+00
  0.00000000E+00  0.00000000E+00  0.00000000E+00  0.00000000E+00  0.00000000E+00
  0.00000000E+00  1.62696601E-01  0.00000000E+00  0.00000000E+00  6.71144345E-01
  0.00000000E+00  0.00000000E+00  0.00000000E+00  0.00000000E+00 -6.71144345E-01
  0.00000000E+00  0.00000000E+00  3.42939001E-02 -6.99427624E-01  8.00428117E-01
  0.00000000E+00  0.00000000E+00 -1.82938945E-01  0.00000000E+00  0.00000000E+00
  6.62891261E-01  1.53118767E-01  0.00000000E+00  0.00000000E+00  3.74832382E-02
  0.00000000E+00  2.65636591E-01 -2.63527849E-01  0.00000000E+00 -2.98637274E-01
 -5.13707005E-01  2.65636591E-01 -2.63527849E-01  0.00000000E+00  2.98637274E-01
 -5.13707005E-01  0.00000000E+00  0.00000000E+00  0.00000000E+00  9.90673601E-02
  0.00000000E+00  0.00000000E+00 -6.86580367E-01  0.00000000E+00  0.00000000E+00
  0.00000000E+00 -1.92325261E-01  0.00000000E+00  0.00000000E+00  0.00000000E+00
  0.00000000E+00  0.00000000E+00  7.46731108E-01  0.00000000E+00  0.00000000E+00
  0.00000000E+00  0.00000000E+00  7.46731108E-01  0.00000000E+00  0.00000000E+00
  1.72644237E-03 -1.60841599E+00  2.72128529E+00  0.00000000E+00  0.00000000E+00
  6.86215825E-02  0.00000000E+00  0.00000000E+00 -9.65621947E-01 -1.48271971E-01
  0.00000000E+00  0.00000000E+00  1.11937952E-01  0.00000000E+00 -6.66167052E-01
 -3.82793154E-01  0.00000000E+00  3.21683053E-01  1.42088043E-01 -6.66167052E-01
 -3.82793154E-01  0.00000000E+00 -3.21683053E-01  1.42088043E-01  0.00000000E+00
  0.00000000E+00  0.00000000E+00  0.00000000E+00 -1.37862499E-01  0.00000000E+00
  0.00000000E+00  9.97952878E-01  0.00000000E+00  0.00000000E+00  0.00000000E+00
  2.87097002E-02  0.00000000E+00  0.00000000E+00 -4.09360135E-01 -1.15238993E-01
  0.00000000E+00 -4.24714619E-01 -6.71145082E-01  4.09360135E-01  1.15238993E-01
  0.00000000E+00 -4.24714619E-01  6.71145082E-01  0.00000000E+00  0.00000000E+00
  0.00000000E+00  0.00000000E+00  6.82191677E-01  0.00000000E+00  0.00000000E+00
  2.89452741E-01  0.00000000E+00  0.00000000E+00  0.00000000E+00  1.51100724E-01
  0.00000000E+00  0.00000000E+00 -1.78573783E-01 -4.28390689E-01  0.00000000E+00
  6.85558730E-01 -5.60862462E-01  1.78573783E-01  4.28390689E-01  0.00000000E+00
  6.85558730E-01  5.60862462E-01 -6.61142799E-02  3.79036659E-01  1.10482880E+00
  0.00000000E+00  0.00000000E+00 -5.25607615E-01  0.00000000E+00  0.00000000E+00
 -3.18154340E-01 -6.76904183E-02  0.00000000E+00  0.00000000E+00  2.19035129E-01
  0.00000000E+00 -4.24486725E-01 -2.45958947E-01  0.00000000E+00  7.99274742E-01
 -4.81761494E-01 -4.24486725E-01 -2.45958947E-01  0.00000000E+00 -7.99274742E-01
 -4.81761494E-01  0.00000000E+00  0.00000000E+00  0.00000000E+00  3.57592445E-02
  0.00000000E+00  0.00000000E+00 -2.86114127E-01  0.00000000E+00  0.00000000E+00
  0.00000000E+00  1.01950567E+00  0.00000000E+00  0.00000000E+00  0.00000000E+00
  0.00000000E+00  0.00000000E+00  3.69475054E-01  0.00000000E+00  0.00000000E+00
  0.00000000E+00  0.00000000E+00  3.69475054E-01  0.00000000E+00  0.00000000E+00
  0.00000000E+00  0.00000000E+00  0.00000000E+00  0.00000000E+00  0.00000000E+00
  0.00000000E+00  0.00000000E+00  0.00000000E+00  0.00000000E+00  0.00000000E+00
  0.00000000E+00  0.00000000E+00  0.00000000E+00  1.04609997E+00  0.00000000E+00