 Entering Gaussian System, Link 0=g16
 Initial command:
 /APL/ISV/x86_64/gaussian/16/C.01/g16/l1.exe "/scr/yagi/water_anion.6711/Gau-7989.inp" -scrdir="/scr/yagi/water_anion.6711/"
 Entering Link 1 = /APL/ISV/x86_64/gaussian/16/C.01/g16/l1.exe PID=      7990.
  
 Copyright (c) 1988-2019, Gaussian, Inc.  All Rights Reserved.
  
 This is part of the Gaussian(R) 16 program.  It is based on
 the Gaussian(R) 09 system (copyright 2009, Gaussian, Inc.),
 the Gaussian(R) 03 system (copyright 2003, Gaussian, Inc.),
 the Gaussian(R) 98 system (copyright 1998, Gaussian, Inc.),
 the Gaussian(R) 94 system (copyright 1995, Gaussian, Inc.),
 the Gaussian 92(TM) system (copyright 1992, Gaussian, Inc.),
 the Gaussian 90(TM) system (copyright 1990, Gaussian, Inc.),
 the Gaussian 88(TM) system (copyright 1988, Gaussian, Inc.),
 the Gaussian 86(TM) system (copyright 1986, Carnegie Mellon
 University), and the Gaussian 82(TM) system (copyright 1983,
 Carnegie Mellon University). Gaussian is a federally registered
 trademark of Gaussian, Inc.
  
 This software contains proprietary and confidential information,
 including trade secrets, belonging to Gaussian, Inc.
  
 This software is provided under written license and may be
 used, copied, transmitted, or stored only in accord with that
 written license.
  
 The following legend is applicable only to US Government
 contracts under FAR:
  
                    RESTRICTED RIGHTS LEGEND
  
 Use, reproduction and disclosure by the US Government is
 subject to restrictions as set forth in subparagraphs (a)
 and (c) of the Commercial Computer Software - Restricted
 Rights clause in FAR 52.227-19.
  
 Gaussian, Inc.
 340 Quinnipiac St., Bldg. 40, Wallingford CT 06492
  
  
 ---------------------------------------------------------------
 Warning -- This program may not be used in any manner that
 competes with the business of Gaussian, Inc. or will provide
 assistance to any competitor of Gaussian, Inc.  The licensee
 of this program is prohibited from giving any competitor of
 Gaussian, Inc. access to this program.  By using this program,
 the user acknowledges that Gaussian, Inc. is engaged in the
 business of creating and licensing software in the field of
 computational chemistry and represents and warrants to the
 licensee that it is not a competitor of Gaussian, Inc. and that
 it will not use this program in any manner prohibited above.
 ---------------------------------------------------------------
  

 Cite this work as:
 Gaussian 16, Revision C.01,
 M. J. Frisch, G. W. Trucks, H. B. Schlegel, G. E. Scuseria, 
 M. A. Robb, J. R. Cheeseman, G. Scalmani, V. Barone, 
 G. A. Petersson, H. Nakatsuji, X. Li, M. Caricato, A. V. Marenich, 
 J. Bloino, B. G. Janesko, R. Gomperts, B. Mennucci, H. P. Hratchian, 
 J. V. Ortiz, A. F. Izmaylov, J. L. Sonnenberg, D. Williams-Young, 
 F. Ding, F. Lipparini, F. Egidi, J. Goings, B. Peng, A. Petrone, 
 T. Henderson, D. Ranasinghe, V. G. Zakrzewski, J. Gao, N. Rega, 
 G. Zheng, W. Liang, M. Hada, M. Ehara, K. Toyota, R. Fukuda, 
 J. Hasegawa, M. Ishida, T. Nakajima, Y. Honda, O. Kitao, H. Nakai, 
 T. Vreven, K. Throssell, J. A. Montgomery, Jr., J. E. Peralta, 
 F. Ogliaro, M. J. Bearpark, J. J. Heyd, E. N. Brothers, K. N. Kudin, 
 V. N. Staroverov, T. A. Keith, R. Kobayashi, J. Normand, 
 K. Raghavachari, A. P. Rendell, J. C. Burant, S. S. Iyengar, 
 J. Tomasi, M. Cossi, J. M. Millam, M. Klene, C. Adamo, R. Cammi, 
 J. W. Ochterski, R. L. Martin, K. Morokuma, O. Farkas, 
 J. B. Foresman, and D. J. Fox, Gaussian, Inc., Wallingford CT, 2019.
 
 ******************************************
 Gaussian 16:  ES64L-G16RevC.01  3-Jul-2019
                 8-Jun-2021 
 ******************************************
 %NprocShared=16
 Will use up to   16 processors via shared memory.
 %chk=water_anion.chk
 %mem=1gb
 --------------------
 #P B3LYP/cc-pVDZ opt
 --------------------
 1/18=20,19=15,26=3,38=1/1,3;
 2/9=110,12=2,17=6,18=5,40=1/2;
 3/5=16,11=2,25=1,30=1,71=1,74=-5/1,2,3;
 4//1;
 5/5=2,38=5/2;
 6/7=2,8=2,9=2,10=2,28=1/1;
 7//1,2,3,16;
 1/18=20,19=15,26=3/3(2);
 2/9=110/2;
 99//99;
 2/9=110/2;
 3/5=16,11=2,25=1,30=1,71=1,74=-5/1,2,3;
 4/5=5,16=3,69=1/1;
 5/5=2,38=5/2;
 7//1,2,3,16;
 1/18=20,19=15,26=3/3(-5);
 2/9=110/2;
 6/7=2,8=2,9=2,10=2,19=2,28=1/1;
 99/9=1/99;
 Leave Link    1 at Tue Jun  8 12:07:44 2021, MaxMem=   134217728 cpu:               0.3 elap:               0.0
 (Enter /APL/ISV/x86_64/gaussian/16/C.01/g16/l101.exe)
 ----------------------
 B3LYP/cc-pVDZ water -1
 ----------------------
 Symbolic Z-matrix:
 Charge = -1 Multiplicity = 2
 O                     0.        0.        0. 
 H                     1.5       0.        0. 
 H                     0.        1.5       0. 
 
 Add virtual bond connecting atoms H2         and O1         Dist= 2.83D+00.
 Add virtual bond connecting atoms H3         and O1         Dist= 2.83D+00.
 ITRead=  0  0  0
 MicOpt= -1 -1 -1
 NAtoms=      3 NQM=        3 NQMF=       0 NMMI=      0 NMMIF=      0
                NMic=       0 NMicF=      0.
                    Isotopes and Nuclear Properties:
 (Nuclear quadrupole moments (NQMom) in fm**2, nuclear magnetic moments (NMagM)
  in nuclear magnetons)

  Atom         1           2           3
 IAtWgt=          16           1           1
 AtmWgt=  15.9949146   1.0078250   1.0078250
 NucSpn=           0           1           1
 AtZEff=  -0.0000000  -0.0000000  -0.0000000
 NQMom=    0.0000000   0.0000000   0.0000000
 NMagM=    0.0000000   2.7928460   2.7928460
 AtZNuc=   8.0000000   1.0000000   1.0000000
 Leave Link  101 at Tue Jun  8 12:07:45 2021, MaxMem=   134217728 cpu:               1.9 elap:               0.1
 (Enter /APL/ISV/x86_64/gaussian/16/C.01/g16/l103.exe)

 GradGradGradGradGradGradGradGradGradGradGradGradGradGradGradGradGradGrad
 Berny optimization.
 Initialization pass.
                           ----------------------------
                           !    Initial Parameters    !
                           ! (Angstroms and Degrees)  !
 --------------------------                            --------------------------
 ! Name  Definition              Value          Derivative Info.                !
 --------------------------------------------------------------------------------
 ! R1    R(1,2)                  1.5            estimate D2E/DX2                !
 ! R2    R(1,3)                  1.5            estimate D2E/DX2                !
 ! A1    A(2,1,3)               90.0            estimate D2E/DX2                !
 --------------------------------------------------------------------------------
 Trust Radius=3.00D-01 FncErr=1.00D-07 GrdErr=1.00D-06 EigMax=2.50D+02 EigMin=1.00D-04
 Number of steps in this run=     20 maximum allowed number of steps=    100.
 GradGradGradGradGradGradGradGradGradGradGradGradGradGradGradGradGradGrad

 Leave Link  103 at Tue Jun  8 12:07:45 2021, MaxMem=   134217728 cpu:               0.2 elap:               0.0
 (Enter /APL/ISV/x86_64/gaussian/16/C.01/g16/l202.exe)
                          Input orientation:                          
 ---------------------------------------------------------------------
 Center     Atomic      Atomic             Coordinates (Angstroms)
 Number     Number       Type             X           Y           Z
 ---------------------------------------------------------------------
      1          8           0        0.000000    0.000000    0.000000
      2          1           0        1.500000    0.000000    0.000000
      3          1           0        0.000000    1.500000    0.000000
 ---------------------------------------------------------------------
                    Distance matrix (angstroms):
                    1          2          3
     1  O    0.000000
     2  H    1.500000   0.000000
     3  H    1.500000   2.121320   0.000000
 Stoichiometry    H2O(1-,2)
 Framework group  C2V[C2(O),SGV(H2)]
 Deg. of freedom     2
 Full point group                 C2V     NOp   4
 Largest Abelian subgroup         C2V     NOp   4
 Largest concise Abelian subgroup C2      NOp   2
                         Standard orientation:                         
 ---------------------------------------------------------------------
 Center     Atomic      Atomic             Coordinates (Angstroms)
 Number     Number       Type             X           Y           Z
 ---------------------------------------------------------------------
      1          8           0       -0.000000    0.000000    0.212132
      2          1           0       -0.000000    1.060660   -0.848528
      3          1           0       -0.000000   -1.060660   -0.848528
 ---------------------------------------------------------------------
 Rotational constants (GHZ):         250.9544735         222.8689353         118.0396647
 Leave Link  202 at Tue Jun  8 12:07:45 2021, MaxMem=   134217728 cpu:               0.2 elap:               0.0
 (Enter /APL/ISV/x86_64/gaussian/16/C.01/g16/l301.exe)
 Standard basis: CC-pVDZ (5D, 7F)
 Ernie: Thresh=  0.10000D-02 Tol=  0.10000D-05 Strict=F.
 Ernie:  2 primitive shells out of 32 were deleted.
 There are    12 symmetry adapted cartesian basis functions of A1  symmetry.
 There are     2 symmetry adapted cartesian basis functions of A2  symmetry.
 There are     4 symmetry adapted cartesian basis functions of B1  symmetry.
 There are     7 symmetry adapted cartesian basis functions of B2  symmetry.
 There are    11 symmetry adapted basis functions of A1  symmetry.
 There are     2 symmetry adapted basis functions of A2  symmetry.
 There are     4 symmetry adapted basis functions of B1  symmetry.
 There are     7 symmetry adapted basis functions of B2  symmetry.
    24 basis functions,    47 primitive gaussians,    25 cartesian basis functions
     6 alpha electrons        5 beta electrons
       nuclear repulsion energy         5.8940134460 Hartrees.
 IExCor=  402 DFT=T Ex+Corr=B3LYP ExCW=0 ScaHFX=  0.200000
 ScaDFX=  0.800000  0.720000  1.000000  0.810000 ScalE2=  1.000000  1.000000
 IRadAn=      5 IRanWt=     -1 IRanGd=            0 ICorTp=0 IEmpDi=  4
 NAtoms=    3 NActive=    3 NUniq=    2 SFac= 2.25D+00 NAtFMM=   60 NAOKFM=F Big=F
 Integral buffers will be    131072 words long.
 Raffenetti 2 integral format.
 Two-electron integral symmetry is turned on.
 Leave Link  301 at Tue Jun  8 12:07:45 2021, MaxMem=   134217728 cpu:               0.9 elap:               0.1
 (Enter /APL/ISV/x86_64/gaussian/16/C.01/g16/l302.exe)
 NPDir=0 NMtPBC=     1 NCelOv=     1 NCel=       1 NClECP=     1 NCelD=      1
         NCelK=      1 NCelE2=     1 NClLst=     1 CellRange=     0.0.
 One-electron integrals computed using PRISM.
 One-electron integral symmetry used in STVInt
 NBasis=    24 RedAO= T EigKep=  9.96D-02  NBF=    11     2     4     7
 NBsUse=    24 1.00D-06 EigRej= -1.00D+00 NBFU=    11     2     4     7
 Precomputing XC quadrature grid using
 IXCGrd= 4 IRadAn=           5 IRanWt=          -1 IRanGd=           0 AccXCQ= 0.00D+00.
 Generated NRdTot=       0 NPtTot=           0 NUsed=           0 NTot=          32
 NSgBfM=    25    25    25    25    25 MxSgAt=     3 MxSgA2=     3.
 Leave Link  302 at Tue Jun  8 12:07:45 2021, MaxMem=   134217728 cpu:               1.5 elap:               0.1
 (Enter /APL/ISV/x86_64/gaussian/16/C.01/g16/l303.exe)
 DipDrv:  MaxL=1.
 Leave Link  303 at Tue Jun  8 12:07:45 2021, MaxMem=   134217728 cpu:               0.4 elap:               0.0
 (Enter /APL/ISV/x86_64/gaussian/16/C.01/g16/l401.exe)
 ExpMin= 1.22D-01 ExpMax= 1.17D+04 ExpMxC= 4.01D+02 IAcc=3 IRadAn=         5 AccDes= 0.00D+00
 Harris functional with IExCor=  402 and IRadAn=       5 diagonalized for initial guess.
 HarFok:  IExCor=  402 AccDes= 0.00D+00 IRadAn=         5 IDoV= 1 UseB2=F ITyADJ=14
 ICtDFT=  3500011 ScaDFX=  1.000000  1.000000  1.000000  1.000000
 FoFCou: FMM=F IPFlag=           0 FMFlag=      100000 FMFlg1=           0
         NFxFlg=           0 DoJE=T BraDBF=F KetDBF=T FulRan=T
         wScrn=  0.000000 ICntrl=       500 IOpCl=  0 I1Cent=   200000004 NGrid=           0
         NMat0=    1 NMatS0=      1 NMatT0=    0 NMatD0=    1 NMtDS0=    0 NMtDT0=    0
 Petite list used in FoFCou.
 Harris En= -76.4186921860271    
 JPrj=0 DoOrth=F DoCkMO=F.
 Initial guess orbital symmetries:
 Alpha Orbitals:
       Occupied  (A1) (A1) (B2) (A1) (B1) (A1)
       Virtual   (B2) (A1) (B2) (B1) (A1) (B2) (A1) (A2) (A1) (B1)
                 (B2) (B2) (A1) (A2) (B1) (A1) (A1) (B2)
 Beta  Orbitals:
       Occupied  (A1) (A1) (B2) (A1) (B1)
       Virtual   (A1) (B2) (A1) (B2) (B1) (A1) (B2) (A1) (A2) (A1)
                 (B1) (B2) (B2) (A1) (A2) (B1) (A1) (A1) (B2)
 The electronic state of the initial guess is 2-A1.
 Initial guess <Sx>= 0.0000 <Sy>= 0.0000 <Sz>= 0.5000 <S**2>= 0.7500 S= 0.5000
 Leave Link  401 at Tue Jun  8 12:07:45 2021, MaxMem=   134217728 cpu:               1.8 elap:               0.1
 (Enter /APL/ISV/x86_64/gaussian/16/C.01/g16/l502.exe)
 Keep R1 and R2 ints in memory in symmetry-blocked form, NReq=13860511.
 FoFCou: FMM=F IPFlag=           0 FMFlag=           0 FMFlg1=           0
         NFxFlg=           0 DoJE=F BraDBF=F KetDBF=F FulRan=T
         wScrn=  0.000000 ICntrl=       600 IOpCl=  0 I1Cent=           0 NGrid=           0
         NMat0=    1 NMatS0=    300 NMatT0=    0 NMatD0=    1 NMtDS0=    0 NMtDT0=    0
 Petite list used in FoFCou.
 UHF open shell SCF:
 Using DIIS extrapolation, IDIIS=  1040.
 NGot=   134217728 LenX=   134189263 LenY=   134188197
 Requested convergence on RMS density matrix=1.00D-08 within 128 cycles.
 Requested convergence on MAX density matrix=1.00D-06.
 Requested convergence on             energy=1.00D-06.
 No special actions if energy rises.
 Integral accuracy reduced to 1.0D-05 until final iterations.

 Cycle   1  Pass 0  IDiag  1:
 E= -76.0285214796774    
 DIIS: error= 9.35D-02 at cycle   1 NSaved=   1.
 NSaved= 1 IEnMin= 1 EnMin= -76.0285214796774     IErMin= 1 ErrMin= 9.35D-02
 ErrMax= 9.35D-02  0.00D+00 EMaxC= 1.00D-01 BMatC= 7.71D-01 BMatP= 7.71D-01
 IDIUse=3 WtCom= 6.50D-02 WtEn= 9.35D-01
 Coeff-Com:  0.100D+01
 Coeff-En:   0.100D+01
 Coeff:      0.100D+01
 Gap=     0.072 Goal=   None    Shift=    0.000
 Gap=     0.023 Goal=   None    Shift=    0.000
 GapD=    0.023 DampG=0.250 DampE=0.500 DampFc=0.2500 IDamp=-1.
 Damping current iteration by 2.50D-01
 RMSDP=4.42D-02 MaxDP=3.67D-01              OVMax= 5.78D-01

 Cycle   2  Pass 0  IDiag  1:
 E= -76.1063382006403     Delta-E=       -0.077816720963 Rises=F Damp=T
 DIIS: error= 2.05D-02 at cycle   2 NSaved=   2.
 NSaved= 2 IEnMin= 2 EnMin= -76.1063382006403     IErMin= 2 ErrMin= 2.05D-02
 ErrMax= 2.05D-02  0.00D+00 EMaxC= 1.00D-01 BMatC= 4.54D-02 BMatP= 7.71D-01
 IDIUse=3 WtCom= 7.95D-01 WtEn= 2.05D-01
 Coeff-Com: -0.256D+00 0.126D+01
 Coeff-En:   0.000D+00 0.100D+01
 Coeff:     -0.203D+00 0.120D+01
 Gap=     0.102 Goal=   None    Shift=    0.000
 Gap=     0.151 Goal=   None    Shift=    0.000
 RMSDP=9.19D-03 MaxDP=8.10D-02 DE=-7.78D-02 OVMax= 3.90D-01

 Cycle   3  Pass 0  IDiag  1:
 E= -76.2132843167855     Delta-E=       -0.106946116145 Rises=F Damp=F
 DIIS: error= 2.09D-02 at cycle   3 NSaved=   3.
 NSaved= 3 IEnMin= 3 EnMin= -76.2132843167855     IErMin= 2 ErrMin= 2.05D-02
 ErrMax= 2.09D-02  0.00D+00 EMaxC= 1.00D-01 BMatC= 3.20D-02 BMatP= 4.54D-02
 IDIUse=3 WtCom= 7.91D-01 WtEn= 2.09D-01
 Coeff-Com:  0.314D+00-0.437D+00 0.112D+01
 Coeff-En:   0.000D+00 0.000D+00 0.100D+01
 Coeff:      0.248D+00-0.345D+00 0.110D+01
 Gap=     0.110 Goal=   None    Shift=    0.000
 Gap=     0.205 Goal=   None    Shift=    0.000
 RMSDP=3.78D-03 MaxDP=3.26D-02 DE=-1.07D-01 OVMax= 6.11D-02

 Cycle   4  Pass 0  IDiag  1:
 E= -76.2185872645737     Delta-E=       -0.005302947788 Rises=F Damp=F
 DIIS: error= 9.35D-03 at cycle   4 NSaved=   4.
 NSaved= 4 IEnMin= 4 EnMin= -76.2185872645737     IErMin= 4 ErrMin= 9.35D-03
 ErrMax= 9.35D-03  0.00D+00 EMaxC= 1.00D-01 BMatC= 6.94D-03 BMatP= 3.20D-02
 IDIUse=3 WtCom= 9.06D-01 WtEn= 9.35D-02
 Coeff-Com: -0.673D-01 0.598D-01 0.138D+00 0.870D+00
 Coeff-En:   0.000D+00 0.000D+00 0.233D+00 0.767D+00
 Coeff:     -0.610D-01 0.542D-01 0.147D+00 0.860D+00
 Gap=     0.108 Goal=   None    Shift=    0.000
 Gap=     0.200 Goal=   None    Shift=    0.000
 RMSDP=1.22D-03 MaxDP=1.19D-02 DE=-5.30D-03 OVMax= 2.27D-02

 Cycle   5  Pass 0  IDiag  1:
 E= -76.2201024245368     Delta-E=       -0.001515159963 Rises=F Damp=F
 DIIS: error= 6.60D-04 at cycle   5 NSaved=   5.
 NSaved= 5 IEnMin= 5 EnMin= -76.2201024245368     IErMin= 5 ErrMin= 6.60D-04
 ErrMax= 6.60D-04  0.00D+00 EMaxC= 1.00D-01 BMatC= 3.52D-05 BMatP= 6.94D-03
 IDIUse=3 WtCom= 9.93D-01 WtEn= 6.60D-03
 Coeff-Com:  0.930D-02-0.134D-01-0.743D-01-0.149D+00 0.123D+01
 Coeff-En:   0.000D+00 0.000D+00 0.000D+00 0.000D+00 0.100D+01
 Coeff:      0.924D-02-0.133D-01-0.738D-01-0.148D+00 0.123D+01
 Gap=     0.109 Goal=   None    Shift=    0.000
 Gap=     0.201 Goal=   None    Shift=    0.000
 RMSDP=1.83D-04 MaxDP=1.60D-03 DE=-1.52D-03 OVMax= 3.23D-03

 Cycle   6  Pass 0  IDiag  1:
 E= -76.2201152519041     Delta-E=       -0.000012827367 Rises=F Damp=F
 DIIS: error= 7.95D-05 at cycle   6 NSaved=   6.
 NSaved= 6 IEnMin= 6 EnMin= -76.2201152519041     IErMin= 6 ErrMin= 7.95D-05
 ErrMax= 7.95D-05  0.00D+00 EMaxC= 1.00D-01 BMatC= 2.35D-07 BMatP= 3.52D-05
 IDIUse=1 WtCom= 1.00D+00 WtEn= 0.00D+00
 Coeff-Com: -0.874D-03 0.312D-02-0.421D-02-0.122D-01-0.420D-01 0.106D+01
 Coeff:     -0.874D-03 0.312D-02-0.421D-02-0.122D-01-0.420D-01 0.106D+01
 Gap=     0.109 Goal=   None    Shift=    0.000
 Gap=     0.201 Goal=   None    Shift=    0.000
 RMSDP=2.87D-05 MaxDP=3.47D-04 DE=-1.28D-05 OVMax= 7.61D-04

 Cycle   7  Pass 0  IDiag  1:
 E= -76.2201155053295     Delta-E=       -0.000000253425 Rises=F Damp=F
 DIIS: error= 3.51D-05 at cycle   7 NSaved=   7.
 NSaved= 7 IEnMin= 7 EnMin= -76.2201155053295     IErMin= 7 ErrMin= 3.51D-05
 ErrMax= 3.51D-05  0.00D+00 EMaxC= 1.00D-01 BMatC= 5.84D-08 BMatP= 2.35D-07
 IDIUse=1 WtCom= 1.00D+00 WtEn= 0.00D+00
 Coeff-Com:  0.579D-03-0.103D-02 0.324D-02 0.187D-02-0.534D-01-0.126D-01
 Coeff-Com:  0.106D+01
 Coeff:      0.579D-03-0.103D-02 0.324D-02 0.187D-02-0.534D-01-0.126D-01
 Coeff:      0.106D+01
 Gap=     0.109 Goal=   None    Shift=    0.000
 Gap=     0.201 Goal=   None    Shift=    0.000
 RMSDP=1.20D-05 MaxDP=1.24D-04 DE=-2.53D-07 OVMax= 2.59D-04

 Cycle   8  Pass 0  IDiag  1:
 E= -76.2201155620793     Delta-E=       -0.000000056750 Rises=F Damp=F
 DIIS: error= 1.71D-05 at cycle   8 NSaved=   8.
 NSaved= 8 IEnMin= 8 EnMin= -76.2201155620793     IErMin= 8 ErrMin= 1.71D-05
 ErrMax= 1.71D-05  0.00D+00 EMaxC= 1.00D-01 BMatC= 9.06D-09 BMatP= 5.84D-08
 IDIUse=1 WtCom= 1.00D+00 WtEn= 0.00D+00
 Coeff-Com: -0.219D-03 0.338D-03-0.159D-02-0.602D-04 0.334D-01-0.742D-01
 Coeff-Com: -0.603D+00 0.164D+01
 Coeff:     -0.219D-03 0.338D-03-0.159D-02-0.602D-04 0.334D-01-0.742D-01
 Coeff:     -0.603D+00 0.164D+01
 Gap=     0.109 Goal=   None    Shift=    0.000
 Gap=     0.201 Goal=   None    Shift=    0.000
 RMSDP=1.03D-05 MaxDP=1.24D-04 DE=-5.67D-08 OVMax= 2.58D-04

 Cycle   9  Pass 0  IDiag  1:
 E= -76.2201155881288     Delta-E=       -0.000000026049 Rises=F Damp=F
 DIIS: error= 7.74D-06 at cycle   9 NSaved=   9.
 NSaved= 9 IEnMin= 9 EnMin= -76.2201155881288     IErMin= 9 ErrMin= 7.74D-06
 ErrMax= 7.74D-06  0.00D+00 EMaxC= 1.00D-01 BMatC= 2.70D-09 BMatP= 9.06D-09
 IDIUse=1 WtCom= 1.00D+00 WtEn= 0.00D+00
 Coeff-Com: -0.233D-04 0.925D-04-0.119D-02-0.261D-02 0.149D-01 0.279D-01
 Coeff-Com: -0.132D+00-0.608D+00 0.170D+01
 Coeff:     -0.233D-04 0.925D-04-0.119D-02-0.261D-02 0.149D-01 0.279D-01
 Coeff:     -0.132D+00-0.608D+00 0.170D+01
 Gap=     0.109 Goal=   None    Shift=    0.000
 Gap=     0.201 Goal=   None    Shift=    0.000
 RMSDP=7.83D-06 MaxDP=8.00D-05 DE=-2.60D-08 OVMax= 1.61D-04

 Initial convergence to 1.0D-05 achieved.  Increase integral accuracy.
 Cycle  10  Pass 1  IDiag  1:
 E= -76.2201140978831     Delta-E=        0.000001490246 Rises=F Damp=F
 DIIS: error= 3.59D-06 at cycle   1 NSaved=   1.
 NSaved= 1 IEnMin= 1 EnMin= -76.2201140978831     IErMin= 1 ErrMin= 3.59D-06
 ErrMax= 3.59D-06  0.00D+00 EMaxC= 1.00D-01 BMatC= 9.49D-10 BMatP= 9.49D-10
 IDIUse=1 WtCom= 1.00D+00 WtEn= 0.00D+00
 Coeff-Com:  0.100D+01
 Coeff:      0.100D+01
 Gap=     0.109 Goal=   None    Shift=    0.000
 Gap=     0.201 Goal=   None    Shift=    0.000
 RMSDP=7.83D-06 MaxDP=8.00D-05 DE= 1.49D-06 OVMax= 3.69D-05

 Cycle  11  Pass 1  IDiag  1:
 E= -76.2201140967707     Delta-E=        0.000000001112 Rises=F Damp=F
 DIIS: error= 8.45D-06 at cycle   2 NSaved=   2.
 NSaved= 2 IEnMin= 1 EnMin= -76.2201140978831     IErMin= 1 ErrMin= 3.59D-06
 ErrMax= 8.45D-06  0.00D+00 EMaxC= 1.00D-01 BMatC= 6.25D-09 BMatP= 9.49D-10
 IDIUse=1 WtCom= 1.00D+00 WtEn= 0.00D+00
 Coeff-Com:  0.726D+00 0.274D+00
 Coeff:      0.726D+00 0.274D+00
 Gap=     0.109 Goal=   None    Shift=    0.000
 Gap=     0.201 Goal=   None    Shift=    0.000
 RMSDP=1.12D-06 MaxDP=1.03D-05 DE= 1.11D-09 OVMax= 1.88D-05

 Cycle  12  Pass 1  IDiag  1:
 E= -76.2201140982204     Delta-E=       -0.000000001450 Rises=F Damp=F
 DIIS: error= 6.31D-07 at cycle   3 NSaved=   3.
 NSaved= 3 IEnMin= 3 EnMin= -76.2201140982204     IErMin= 3 ErrMin= 6.31D-07
 ErrMax= 6.31D-07  0.00D+00 EMaxC= 1.00D-01 BMatC= 2.15D-11 BMatP= 9.49D-10
 IDIUse=1 WtCom= 1.00D+00 WtEn= 0.00D+00
 Coeff-Com: -0.227D+00-0.964D-01 0.132D+01
 Coeff:     -0.227D+00-0.964D-01 0.132D+01
 Gap=     0.109 Goal=   None    Shift=    0.000
 Gap=     0.201 Goal=   None    Shift=    0.000
 RMSDP=3.58D-07 MaxDP=3.82D-06 DE=-1.45D-09 OVMax= 7.69D-06

 Cycle  13  Pass 1  IDiag  1:
 E= -76.2201140982689     Delta-E=       -0.000000000048 Rises=F Damp=F
 DIIS: error= 6.01D-07 at cycle   4 NSaved=   4.
 NSaved= 4 IEnMin= 4 EnMin= -76.2201140982689     IErMin= 4 ErrMin= 6.01D-07
 ErrMax= 6.01D-07  0.00D+00 EMaxC= 1.00D-01 BMatC= 1.38D-11 BMatP= 2.15D-11
 IDIUse=1 WtCom= 1.00D+00 WtEn= 0.00D+00
 Coeff-Com: -0.163D+00 0.102D-02-0.612D+00 0.177D+01
 Coeff:     -0.163D+00 0.102D-02-0.612D+00 0.177D+01
 Gap=     0.109 Goal=   None    Shift=    0.000
 Gap=     0.201 Goal=   None    Shift=    0.000
 RMSDP=4.24D-07 MaxDP=5.13D-06 DE=-4.85D-11 OVMax= 1.05D-05

 Cycle  14  Pass 1  IDiag  1:
 E= -76.2201140982982     Delta-E=       -0.000000000029 Rises=F Damp=F
 DIIS: error= 1.23D-07 at cycle   5 NSaved=   5.
 NSaved= 5 IEnMin= 5 EnMin= -76.2201140982982     IErMin= 5 ErrMin= 1.23D-07
 ErrMax= 1.23D-07  0.00D+00 EMaxC= 1.00D-01 BMatC= 6.96D-13 BMatP= 1.38D-11
 IDIUse=1 WtCom= 1.00D+00 WtEn= 0.00D+00
 Coeff-Com:  0.129D-01 0.566D-02-0.236D+00 0.951D-01 0.112D+01
 Coeff:      0.129D-01 0.566D-02-0.236D+00 0.951D-01 0.112D+01
 Gap=     0.109 Goal=   None    Shift=    0.000
 Gap=     0.201 Goal=   None    Shift=    0.000
 RMSDP=1.33D-07 MaxDP=1.44D-06 DE=-2.93D-11 OVMax= 2.91D-06

 Cycle  15  Pass 1  IDiag  1:
 E= -76.2201140983004     Delta-E=       -0.000000000002 Rises=F Damp=F
 DIIS: error= 2.06D-08 at cycle   6 NSaved=   6.
 NSaved= 6 IEnMin= 6 EnMin= -76.2201140983004     IErMin= 6 ErrMin= 2.06D-08
 ErrMax= 2.06D-08  0.00D+00 EMaxC= 1.00D-01 BMatC= 2.63D-14 BMatP= 6.96D-13
 IDIUse=1 WtCom= 1.00D+00 WtEn= 0.00D+00
 Coeff-Com:  0.149D-01 0.120D-02 0.151D-01-0.120D+00 0.102D+00 0.987D+00
 Coeff:      0.149D-01 0.120D-02 0.151D-01-0.120D+00 0.102D+00 0.987D+00
 Gap=     0.109 Goal=   None    Shift=    0.000
 Gap=     0.201 Goal=   None    Shift=    0.000
 RMSDP=1.90D-08 MaxDP=1.98D-07 DE=-2.19D-12 OVMax= 4.16D-07

 Cycle  16  Pass 1  IDiag  1:
 E= -76.2201140983005     Delta-E=       -0.000000000000 Rises=F Damp=F
 DIIS: error= 7.20D-09 at cycle   7 NSaved=   7.
 NSaved= 7 IEnMin= 7 EnMin= -76.2201140983005     IErMin= 7 ErrMin= 7.20D-09
 ErrMax= 7.20D-09  0.00D+00 EMaxC= 1.00D-01 BMatC= 3.25D-15 BMatP= 2.63D-14
 IDIUse=1 WtCom= 1.00D+00 WtEn= 0.00D+00
 Coeff-Com: -0.275D-02 0.316D-04 0.928D-02 0.552D-02-0.537D-01-0.133D+00
 Coeff-Com:  0.117D+01
 Coeff:     -0.275D-02 0.316D-04 0.928D-02 0.552D-02-0.537D-01-0.133D+00
 Coeff:      0.117D+01
 Gap=     0.109 Goal=   None    Shift=    0.000
 Gap=     0.201 Goal=   None    Shift=    0.000
 RMSDP=3.15D-09 MaxDP=3.51D-08 DE=-1.28D-13 OVMax= 7.64D-08

 SCF Done:  E(UB3LYP) =  -76.2201140983     A.U. after   16 cycles
            NFock= 16  Conv=0.31D-08     -V/T= 2.0062
 <Sx>= 0.0000 <Sy>= 0.0000 <Sz>= 0.5000 <S**2>= 0.7580 S= 0.5040
 <L.S>= 0.000000000000E+00
 KE= 7.575279105602D+01 PE=-1.957843324973D+02 EE= 3.791741389694D+01
 Annihilation of the first spin contaminant:
 S**2 before annihilation     0.7580,   after     0.7500
 Leave Link  502 at Tue Jun  8 12:07:45 2021, MaxMem=   134217728 cpu:               2.9 elap:               0.2
 (Enter /APL/ISV/x86_64/gaussian/16/C.01/g16/l601.exe)
 Copying SCF densities to generalized density rwf, IOpCl= 1 IROHF=0.

 **********************************************************************

            Population analysis using the SCF Density.

 **********************************************************************

 Orbital symmetries:
 Alpha Orbitals:
       Occupied  (A1) (A1) (A1) (B2) (B1) (A1)
       Virtual   (B2) (B2) (A1) (B1) (A1) (B2) (A1) (A2) (A1) (B1)
                 (B2) (B2) (A1) (B1) (A1) (A2) (A1) (B2)
 Beta  Orbitals:
       Occupied  (A1) (A1) (B2) (A1) (B1)
       Virtual   (A1) (B2) (B2) (A1) (B1) (A1) (B2) (A1) (A2) (A1)
                 (B1) (B2) (B2) (A1) (A2) (A1) (B1) (A1) (B2)
 The electronic state is 2-A1.
 Alpha  occ. eigenvalues --  -18.84131  -0.57388  -0.06882  -0.05495   0.03460
 Alpha  occ. eigenvalues --    0.12650
 Alpha virt. eigenvalues --    0.23519   0.71253   0.71459   1.17749   1.23073
 Alpha virt. eigenvalues --    1.29922   1.49768   1.55072   1.57647   1.66232
 Alpha virt. eigenvalues --    1.69824   1.75045   2.21119   2.95618   2.96251
 Alpha virt. eigenvalues --    2.96265   3.23217   3.35011
  Beta  occ. eigenvalues --  -18.82784  -0.53781  -0.04030  -0.01308   0.04804
  Beta virt. eigenvalues --    0.24912   0.26010   0.73501   0.74794   1.18844
  Beta virt. eigenvalues --    1.26543   1.30786   1.52455   1.57789   1.61405
  Beta virt. eigenvalues --    1.68876   1.72468   1.77521   2.23452   2.96507
  Beta virt. eigenvalues --    2.99400   2.99718   3.25410   3.38472
          Condensed to atoms (all electrons):
               1          2          3
     1  O    8.516293  -0.013421  -0.013421
     2  H   -0.013421   1.179066   0.089631
     3  H   -0.013421   0.089631   1.179066
          Atomic-Atomic Spin Densities.
               1          2          3
     1  O    0.776109  -0.196143  -0.196143
     2  H   -0.196143   0.414511   0.089720
     3  H   -0.196143   0.089720   0.414511
 Mulliken charges and spin densities:
               1          2
     1  O   -0.489450   0.383823
     2  H   -0.255275   0.308089
     3  H   -0.255275   0.308089
 Sum of Mulliken charges =  -1.00000   1.00000
 Mulliken charges and spin densities with hydrogens summed into heavy atoms:
               1          2
     1  O   -1.000000   1.000000
 Electronic spatial extent (au):  <R**2>=             40.2180
 Charge=             -1.0000 electrons
 Dipole moment (field-independent basis, Debye):
    X=              0.0000    Y=              0.0000    Z=              1.4408  Tot=              1.4408
 Quadrupole moment (field-independent basis, Debye-Ang):
   XX=            -10.3685   YY=            -12.3725   ZZ=            -11.9005
   XY=             -0.0000   XZ=             -0.0000   YZ=              0.0000
 Traceless Quadrupole moment (field-independent basis, Debye-Ang):
   XX=              1.1787   YY=             -0.8254   ZZ=             -0.3533
   XY=             -0.0000   XZ=             -0.0000   YZ=              0.0000
 Octapole moment (field-independent basis, Debye-Ang**2):
  XXX=              0.0000  YYY=              0.0000  ZZZ=              8.5790  XYY=              0.0000
  XXY=             -0.0000  XXZ=              2.1974  XZZ=              0.0000  YZZ=             -0.0000
  YYZ=              4.5719  XYZ=              0.0000
 Hexadecapole moment (field-independent basis, Debye-Ang**3):
 XXXX=            -10.2908 YYYY=            -39.9981 ZZZZ=            -31.2573 XXXY=             -0.0000
 XXXZ=             -0.0000 YYYX=             -0.0000 YYYZ=              0.0000 ZZZX=             -0.0000
 ZZZY=              0.0000 XXYY=             -7.9018 XXZZ=             -6.7292 YYZZ=            -12.7401
 XXYZ=              0.0000 YYXZ=             -0.0000 ZZXY=             -0.0000
 N-N= 5.894013446007D+00 E-N=-1.957843326465D+02  KE= 7.575279105602D+01
 Symmetry A1   KE= 6.846361265858D+01
 Symmetry A2   KE= 8.261990466451D-36
 Symmetry B1   KE= 4.585599224548D+00
 Symmetry B2   KE= 2.703579172893D+00
 Symmetry A1   SP= 1.000000000000D+00
 Symmetry A2   SP=-7.523163845263D-37
 Symmetry B1   SP=-4.876060929204D-15
 Symmetry B2   SP=-5.463993987535D-15
                          Isotropic Fermi Contact Couplings
        Atom                 a.u.       MegaHertz       Gauss      10(-4) cm-1
     1  O(17)              0.47141    -285.76853    -101.96932     -95.32212
     2  H(1)               0.04239     189.47172      67.60822      63.20096
     3  H(1)               0.04239     189.47172      67.60822      63.20096
 --------------------------------------------------------
       Center         ----  Spin Dipole Couplings  ----
                      3XX-RR        3YY-RR        3ZZ-RR
 --------------------------------------------------------
     1   Atom       -0.851677     -1.351506      2.203182
     2   Atom       -0.020084      0.020321     -0.000238
     3   Atom       -0.020084      0.020321     -0.000238
 --------------------------------------------------------
                        XY            XZ            YZ
 --------------------------------------------------------
     1   Atom        0.000000     -0.000000     -0.000000
     2   Atom        0.000000      0.000000     -0.020475
     3   Atom        0.000000      0.000000      0.020475
 --------------------------------------------------------


 ---------------------------------------------------------------------------------
              Anisotropic Spin Dipole Couplings in Principal Axis System
 ---------------------------------------------------------------------------------

       Atom             a.u.   MegaHertz   Gauss  10(-4) cm-1        Axes

              Baa    -1.3515    97.794    34.895    32.621 -0.0000  1.0000  0.0000
     1 O(17)  Bbb    -0.8517    61.627    21.990    20.556  1.0000  0.0000  0.0000
              Bcc     2.2032  -159.421   -56.885   -53.177 -0.0000 -0.0000  1.0000
 
              Baa    -0.0201   -10.716    -3.824    -3.574  1.0000 -0.0000 -0.0000
     2 H(1)   Bbb    -0.0129    -6.866    -2.450    -2.290  0.0000  0.5250  0.8511
              Bcc     0.0330    17.582     6.274     5.865 -0.0000  0.8511 -0.5250
 
              Baa    -0.0201   -10.716    -3.824    -3.574  1.0000 -0.0000  0.0000
     3 H(1)   Bbb    -0.0129    -6.866    -2.450    -2.290 -0.0000 -0.5250  0.8511
              Bcc     0.0330    17.582     6.274     5.865  0.0000  0.8511  0.5250
 

 ---------------------------------------------------------------------------------

 No NMR shielding tensors so no spin-rotation constants.
 Leave Link  601 at Tue Jun  8 12:07:45 2021, MaxMem=   134217728 cpu:               2.0 elap:               0.2
 (Enter /APL/ISV/x86_64/gaussian/16/C.01/g16/l701.exe)
 ... and contract with generalized density number  0.
 Compute integral first derivatives.
 Leave Link  701 at Tue Jun  8 12:07:46 2021, MaxMem=   134217728 cpu:               1.3 elap:               0.1
 (Enter /APL/ISV/x86_64/gaussian/16/C.01/g16/l702.exe)
 L702 exits ... SP integral derivatives will be done elsewhere.
 Leave Link  702 at Tue Jun  8 12:07:46 2021, MaxMem=   134217728 cpu:               0.5 elap:               0.1
 (Enter /APL/ISV/x86_64/gaussian/16/C.01/g16/l703.exe)
 Integral derivatives from FoFJK, PRISM(SPDF).
 Compute integral first derivatives, UseDBF=F ICtDFT=           0.
 Calling FoFJK, ICntrl=      2127 FMM=F ISym2X=1 I1Cent= 0 IOpClX= 1 NMat=1 NMatS=1 NMatT=0.
 FoFJK:  IHMeth= 1 ICntrl=    2127 DoSepK=F KAlg= 0 I1Cent=           0 FoldK=F
 IRaf=         0 NMat=       1 IRICut=       1 DoRegI=T DoRafI=F ISym2E= 1 IDoP0=0 IntGTp=1.
 FoFCou: FMM=F IPFlag=           0 FMFlag=      100000 FMFlg1=         800
         NFxFlg=           0 DoJE=F BraDBF=F KetDBF=F FulRan=T
         wScrn=  0.000000 ICntrl=      2127 IOpCl=  1 I1Cent=           0 NGrid=           0
         NMat0=    1 NMatS0=      1 NMatT0=    0 NMatD0=    1 NMtDS0=    0 NMtDT0=    0
 Petite list used in FoFCou.
 Leave Link  703 at Tue Jun  8 12:07:46 2021, MaxMem=   134217728 cpu:               2.1 elap:               0.2
 (Enter /APL/ISV/x86_64/gaussian/16/C.01/g16/l716.exe)
 Dipole        = 7.22022983D-17 0.00000000D+00 5.66843490D-01
 ***** Axes restored to original set *****
 -------------------------------------------------------------------
 Center     Atomic                   Forces (Hartrees/Bohr)
 Number     Number              X              Y              Z
 -------------------------------------------------------------------
      1        8           0.048652691    0.048652691    0.000000000
      2        1          -0.044231986   -0.004420705   -0.000000000
      3        1          -0.004420705   -0.044231986   -0.000000000
 -------------------------------------------------------------------
 Cartesian Forces:  Max     0.048652691 RMS     0.031066579
 Leave Link  716 at Tue Jun  8 12:07:46 2021, MaxMem=   134217728 cpu:               0.6 elap:               0.1
 (Enter /APL/ISV/x86_64/gaussian/16/C.01/g16/l103.exe)

 GradGradGradGradGradGradGradGradGradGradGradGradGradGradGradGradGradGrad
 Berny optimization.
 FormGI is forming the generalized inverse of G from B-inverse, IUseBI=4.
 Internal  Forces:  Max     0.044231986 RMS     0.036832776
 Search for a local minimum.
 Step number   1 out of a maximum of   20
 All quantities printed in internal units (Hartrees-Bohrs-Radians)
 RMS Force = .36833D-01 SwitMx=.10000D-02 MixMth= 1
 Mixed Optimization -- RFO/linear search
 Second derivative matrix not updated -- first step.
 The second derivative matrix:
                          R1        R2        A1
           R1           0.11333
           R2           0.00000   0.11333
           A1           0.00000   0.00000   0.16000
 ITU=  0
     Eigenvalues ---    0.11333   0.11333   0.16000
 RFO step:  Lambda=-2.84353317D-02 EMin= 1.13327293D-01
 Linear search not attempted -- first point.
 Maximum step size (   0.300) exceeded in Quadratic search.
    -- Step size scaled by   0.672
 Iteration  1 RMS(Cart)=  0.11802502 RMS(Int)=  0.00881312
 Iteration  2 RMS(Cart)=  0.00893777 RMS(Int)=  0.00000842
 Iteration  3 RMS(Cart)=  0.00001069 RMS(Int)=  0.00000000
 Iteration  4 RMS(Cart)=  0.00000000 RMS(Int)=  0.00000000
 ITry= 1 IFail=0 DXMaxC= 1.21D-01 DCOld= 1.00D+10 DXMaxT= 3.00D-01 DXLimC= 3.00D+00 Rises=F
 ClnCor:  largest displacement from symmetrization is 9.21D-16 for atom     3.
 Variable       Old X    -DE/DX   Delta X   Delta X   Delta X     New X
                                 (Linear)    (Quad)   (Total)
    R1        2.83459  -0.04423   0.00000  -0.20976  -0.20976   2.62483
    R2        2.83459  -0.04423   0.00000  -0.20976  -0.20976   2.62483
    A1        1.57080   0.01253   0.00000   0.04471   0.04471   1.61550
         Item               Value     Threshold  Converged?
 Maximum Force            0.044232     0.000450     NO 
 RMS     Force            0.036833     0.000300     NO 
 Maximum Displacement     0.120723     0.001800     NO 
 RMS     Displacement     0.125385     0.001200     NO 
 Predicted change in Energy=-1.397034D-02
 Lowest energy point so far.  Saving SCF results.
 GradGradGradGradGradGradGradGradGradGradGradGradGradGradGradGradGradGrad

 Leave Link  103 at Tue Jun  8 12:07:46 2021, MaxMem=   134217728 cpu:               0.2 elap:               0.0
 (Enter /APL/ISV/x86_64/gaussian/16/C.01/g16/l202.exe)
                          Input orientation:                          
 ---------------------------------------------------------------------
 Center     Atomic      Atomic             Coordinates (Angstroms)
 Number     Number       Type             X           Y           Z
 ---------------------------------------------------------------------
      1          8           0        0.047465    0.047465   -0.000000
      2          1           0        1.436116    0.016419   -0.000000
      3          1           0        0.016419    1.436116    0.000000
 ---------------------------------------------------------------------
                    Distance matrix (angstroms):
                    1          2          3
     1  O    0.000000
     2  H    1.388998   0.000000
     3  H    1.388998   2.007755   0.000000
 Stoichiometry    H2O(1-,2)
 Framework group  C2V[C2(O),SGV(H2)]
 Deg. of freedom     2
 Full point group                 C2V     NOp   4
 RotChk:  IX=0 Diff= 3.26D-16
 Largest Abelian subgroup         C2V     NOp   4
 Largest concise Abelian subgroup C2      NOp   2
                         Standard orientation:                         
 ---------------------------------------------------------------------
 Center     Atomic      Atomic             Coordinates (Angstroms)
 Number     Number       Type             X           Y           Z
 ---------------------------------------------------------------------
      1          8           0        0.000000    0.000000    0.191994
      2          1           0       -0.000000    1.003878   -0.767977
      3          1           0       -0.000000   -1.003878   -0.767977
 ---------------------------------------------------------------------
 Rotational constants (GHZ):         306.3590902         248.7943629         137.2961192
 Leave Link  202 at Tue Jun  8 12:07:46 2021, MaxMem=   134217728 cpu:               0.2 elap:               0.0
 (Enter /APL/ISV/x86_64/gaussian/16/C.01/g16/l301.exe)
 Standard basis: CC-pVDZ (5D, 7F)
 Ernie: Thresh=  0.10000D-02 Tol=  0.10000D-05 Strict=F.
 Ernie:  2 primitive shells out of 32 were deleted.
 There are    12 symmetry adapted cartesian basis functions of A1  symmetry.
 There are     2 symmetry adapted cartesian basis functions of A2  symmetry.
 There are     4 symmetry adapted cartesian basis functions of B1  symmetry.
 There are     7 symmetry adapted cartesian basis functions of B2  symmetry.
 There are    11 symmetry adapted basis functions of A1  symmetry.
 There are     2 symmetry adapted basis functions of A2  symmetry.
 There are     4 symmetry adapted basis functions of B1  symmetry.
 There are     7 symmetry adapted basis functions of B2  symmetry.
    24 basis functions,    47 primitive gaussians,    25 cartesian basis functions
     6 alpha electrons        5 beta electrons
       nuclear repulsion energy         6.3592090461 Hartrees.
 IExCor=  402 DFT=T Ex+Corr=B3LYP ExCW=0 ScaHFX=  0.200000
 ScaDFX=  0.800000  0.720000  1.000000  0.810000 ScalE2=  1.000000  1.000000
 IRadAn=      5 IRanWt=     -1 IRanGd=            0 ICorTp=0 IEmpDi=  4
 NAtoms=    3 NActive=    3 NUniq=    2 SFac= 2.25D+00 NAtFMM=   60 NAOKFM=F Big=F
 Integral buffers will be    131072 words long.
 Raffenetti 2 integral format.
 Two-electron integral symmetry is turned on.
 Leave Link  301 at Tue Jun  8 12:07:46 2021, MaxMem=   134217728 cpu:               1.0 elap:               0.1
 (Enter /APL/ISV/x86_64/gaussian/16/C.01/g16/l302.exe)
 NPDir=0 NMtPBC=     1 NCelOv=     1 NCel=       1 NClECP=     1 NCelD=      1
         NCelK=      1 NCelE2=     1 NClLst=     1 CellRange=     0.0.
 One-electron integrals computed using PRISM.
 One-electron integral symmetry used in STVInt
 NBasis=    24 RedAO= T EigKep=  8.22D-02  NBF=    11     2     4     7
 NBsUse=    24 1.00D-06 EigRej= -1.00D+00 NBFU=    11     2     4     7
 Precomputing XC quadrature grid using
 IXCGrd= 4 IRadAn=           5 IRanWt=          -1 IRanGd=           0 AccXCQ= 0.00D+00.
 Generated NRdTot=       0 NPtTot=           0 NUsed=           0 NTot=          32
 NSgBfM=    25    25    25    25    25 MxSgAt=     3 MxSgA2=     3.
 Leave Link  302 at Tue Jun  8 12:07:46 2021, MaxMem=   134217728 cpu:               1.6 elap:               0.1
 (Enter /APL/ISV/x86_64/gaussian/16/C.01/g16/l303.exe)
 DipDrv:  MaxL=1.
 Leave Link  303 at Tue Jun  8 12:07:46 2021, MaxMem=   134217728 cpu:               0.4 elap:               0.0
 (Enter /APL/ISV/x86_64/gaussian/16/C.01/g16/l401.exe)
 Initial guess from the checkpoint file:  "water_anion.chk"
 B after Tr=     0.000000   -0.000000   -0.000000
         Rot=    1.000000    0.000000   -0.000000   -0.000000 Ang=   0.00 deg.
 Guess basis will be translated and rotated to current coordinates.
 JPrj=2 DoOrth=T DoCkMO=T.
 Initial guess orbital symmetries:
 Alpha Orbitals:
       Occupied  (A1) (A1) (A1) (B2) (B1) (A1)
       Virtual   (B2) (B2) (A1) (B1) (A1) (B2) (A1) (A2) (A1) (B1)
                 (B2) (B2) (A1) (B1) (A1) (A2) (A1) (B2)
 Beta  Orbitals:
       Occupied  (A1) (A1) (B2) (A1) (B1)
       Virtual   (A1) (B2) (B2) (A1) (B1) (A1) (B2) (A1) (A2) (A1)
                 (B1) (B2) (B2) (A1) (A2) (A1) (B1) (A1) (B2)
 The electronic state of the initial guess is 2-A1.
 Initial guess <Sx>= 0.0000 <Sy>= 0.0000 <Sz>= 0.5000 <S**2>= 0.7573 S= 0.5036
 Generating alternative initial guess.
 ExpMin= 1.22D-01 ExpMax= 1.17D+04 ExpMxC= 4.01D+02 IAcc=3 IRadAn=         5 AccDes= 0.00D+00
 Harris functional with IExCor=  402 and IRadAn=       5 diagonalized for initial guess.
 HarFok:  IExCor=  402 AccDes= 0.00D+00 IRadAn=         5 IDoV= 1 UseB2=F ITyADJ=14
 ICtDFT=  3500011 ScaDFX=  1.000000  1.000000  1.000000  1.000000
 FoFCou: FMM=F IPFlag=           0 FMFlag=      100000 FMFlg1=           0
         NFxFlg=           0 DoJE=T BraDBF=F KetDBF=T FulRan=T
         wScrn=  0.000000 ICntrl=       500 IOpCl=  0 I1Cent=   200000004 NGrid=           0
         NMat0=    1 NMatS0=      1 NMatT0=    0 NMatD0=    1 NMtDS0=    0 NMtDT0=    0
 Petite list used in FoFCou.
 Harris En= -76.4381148801106    
 Leave Link  401 at Tue Jun  8 12:07:46 2021, MaxMem=   134217728 cpu:               2.8 elap:               0.2
 (Enter /APL/ISV/x86_64/gaussian/16/C.01/g16/l502.exe)
 Keep R1 and R2 ints in memory in symmetry-blocked form, NReq=13860511.
 FoFCou: FMM=F IPFlag=           0 FMFlag=           0 FMFlg1=           0
         NFxFlg=           0 DoJE=F BraDBF=F KetDBF=F FulRan=T
         wScrn=  0.000000 ICntrl=       600 IOpCl=  0 I1Cent=           0 NGrid=           0
         NMat0=    1 NMatS0=    300 NMatT0=    0 NMatD0=    1 NMtDS0=    0 NMtDT0=    0
 Petite list used in FoFCou.
 UHF open shell SCF:
 Using DIIS extrapolation, IDIIS=  1040.
 NGot=   134217728 LenX=   134189263 LenY=   134188197
 Requested convergence on RMS density matrix=1.00D-08 within 128 cycles.
 Requested convergence on MAX density matrix=1.00D-06.
 Requested convergence on             energy=1.00D-06.
 No special actions if energy rises.
 Integral accuracy reduced to 1.0D-05 until final iterations.

 Cycle   1  Pass 0  IDiag  1:
 E= -76.2365109479464    
 DIIS: error= 1.00D-02 at cycle   1 NSaved=   1.
 NSaved= 1 IEnMin= 1 EnMin= -76.2365109479464     IErMin= 1 ErrMin= 1.00D-02
 ErrMax= 1.00D-02  0.00D+00 EMaxC= 1.00D-01 BMatC= 5.57D-03 BMatP= 5.57D-03
 IDIUse=3 WtCom= 9.00D-01 WtEn= 1.00D-01
 Coeff-Com:  0.100D+01
 Coeff-En:   0.100D+01
 Coeff:      0.100D+01
 Gap=     0.127 Goal=   None    Shift=    0.000
 Gap=     0.233 Goal=   None    Shift=    0.000
 GapD=    0.127 DampG=1.000 DampE=1.000 DampFc=1.0000 IDamp=-1.
 RMSDP=4.05D-03 MaxDP=3.75D-02              OVMax= 4.63D-02

 Cycle   2  Pass 0  IDiag  1:
 E= -76.2388855304051     Delta-E=       -0.002374582459 Rises=F Damp=F
 DIIS: error= 4.47D-03 at cycle   2 NSaved=   2.
 NSaved= 2 IEnMin= 2 EnMin= -76.2388855304051     IErMin= 2 ErrMin= 4.47D-03
 ErrMax= 4.47D-03  0.00D+00 EMaxC= 1.00D-01 BMatC= 1.90D-03 BMatP= 5.57D-03
 IDIUse=3 WtCom= 9.55D-01 WtEn= 4.47D-02
 Coeff-Com:  0.250D+00 0.750D+00
 Coeff-En:   0.000D+00 0.100D+01
 Coeff:      0.239D+00 0.761D+00
 Gap=     0.115 Goal=   None    Shift=    0.000
 Gap=     0.211 Goal=   None    Shift=    0.000
 RMSDP=1.65D-03 MaxDP=1.37D-02 DE=-2.37D-03 OVMax= 2.26D-02

 Cycle   3  Pass 0  IDiag  1:
 E= -76.2385320040729     Delta-E=        0.000353526332 Rises=F Damp=F
 DIIS: error= 6.28D-03 at cycle   3 NSaved=   3.
 NSaved= 3 IEnMin= 2 EnMin= -76.2388855304051     IErMin= 2 ErrMin= 4.47D-03
 ErrMax= 6.28D-03  0.00D+00 EMaxC= 1.00D-01 BMatC= 3.66D-03 BMatP= 1.90D-03
 IDIUse=3 WtCom= 1.12D-01 WtEn= 8.88D-01
 Coeff-Com: -0.539D-01 0.611D+00 0.442D+00
 Coeff-En:   0.000D+00 0.615D+00 0.385D+00
 Coeff:     -0.604D-02 0.615D+00 0.391D+00
 Gap=     0.113 Goal=   None    Shift=    0.000
 Gap=     0.215 Goal=   None    Shift=    0.000
 RMSDP=8.38D-04 MaxDP=7.93D-03 DE= 3.54D-04 OVMax= 1.52D-02

 Cycle   4  Pass 0  IDiag  1:
 E= -76.2393440704937     Delta-E=       -0.000812066421 Rises=F Damp=F
 DIIS: error= 4.77D-04 at cycle   4 NSaved=   4.
 NSaved= 4 IEnMin= 4 EnMin= -76.2393440704937     IErMin= 4 ErrMin= 4.77D-04
 ErrMax= 4.77D-04  0.00D+00 EMaxC= 1.00D-01 BMatC= 1.55D-05 BMatP= 1.90D-03
 IDIUse=3 WtCom= 9.95D-01 WtEn= 4.77D-03
 Coeff-Com: -0.119D-01-0.469D-01-0.844D-01 0.114D+01
 Coeff-En:   0.000D+00 0.000D+00 0.000D+00 0.100D+01
 Coeff:     -0.119D-01-0.467D-01-0.840D-01 0.114D+01
 Gap=     0.113 Goal=   None    Shift=    0.000
 Gap=     0.215 Goal=   None    Shift=    0.000
 RMSDP=1.57D-04 MaxDP=1.86D-03 DE=-8.12D-04 OVMax= 3.71D-03

 Cycle   5  Pass 0  IDiag  1:
 E= -76.2393520984610     Delta-E=       -0.000008027967 Rises=F Damp=F
 DIIS: error= 8.46D-05 at cycle   5 NSaved=   5.
 NSaved= 5 IEnMin= 5 EnMin= -76.2393520984610     IErMin= 5 ErrMin= 8.46D-05
 ErrMax= 8.46D-05  0.00D+00 EMaxC= 1.00D-01 BMatC= 6.69D-07 BMatP= 1.55D-05
 IDIUse=1 WtCom= 1.00D+00 WtEn= 0.00D+00
 Coeff-Com:  0.620D-02-0.727D-01-0.590D-01 0.144D+00 0.982D+00
 Coeff:      0.620D-02-0.727D-01-0.590D-01 0.144D+00 0.982D+00
 Gap=     0.113 Goal=   None    Shift=    0.000
 Gap=     0.215 Goal=   None    Shift=    0.000
 RMSDP=4.35D-05 MaxDP=5.10D-04 DE=-8.03D-06 OVMax= 1.01D-03

 Cycle   6  Pass 0  IDiag  1:
 E= -76.2393525205135     Delta-E=       -0.000000422053 Rises=F Damp=F
 DIIS: error= 1.79D-05 at cycle   6 NSaved=   6.
 NSaved= 6 IEnMin= 6 EnMin= -76.2393525205135     IErMin= 6 ErrMin= 1.79D-05
 ErrMax= 1.79D-05  0.00D+00 EMaxC= 1.00D-01 BMatC= 2.10D-08 BMatP= 6.69D-07
 IDIUse=1 WtCom= 1.00D+00 WtEn= 0.00D+00
 Coeff-Com: -0.675D-03 0.108D-01 0.116D-01-0.378D-01-0.176D+00 0.119D+01
 Coeff:     -0.675D-03 0.108D-01 0.116D-01-0.378D-01-0.176D+00 0.119D+01
 Gap=     0.113 Goal=   None    Shift=    0.000
 Gap=     0.215 Goal=   None    Shift=    0.000
 RMSDP=6.40D-06 MaxDP=6.00D-05 DE=-4.22D-07 OVMax= 1.16D-04

 Initial convergence to 1.0D-05 achieved.  Increase integral accuracy.
 Cycle   7  Pass 1  IDiag  1:
 E= -76.2393497856654     Delta-E=        0.000002734848 Rises=F Damp=F
 DIIS: error= 4.84D-06 at cycle   1 NSaved=   1.
 NSaved= 1 IEnMin= 1 EnMin= -76.2393497856654     IErMin= 1 ErrMin= 4.84D-06
 ErrMax= 4.84D-06  0.00D+00 EMaxC= 1.00D-01 BMatC= 1.37D-09 BMatP= 1.37D-09
 IDIUse=1 WtCom= 1.00D+00 WtEn= 0.00D+00
 Coeff-Com:  0.100D+01
 Coeff:      0.100D+01
 Gap=     0.113 Goal=   None    Shift=    0.000
 Gap=     0.215 Goal=   None    Shift=    0.000
 RMSDP=6.40D-06 MaxDP=6.00D-05 DE= 2.73D-06 OVMax= 3.70D-05

 Cycle   8  Pass 1  IDiag  1:
 E= -76.2393497877733     Delta-E=       -0.000000002108 Rises=F Damp=F
 DIIS: error= 3.74D-06 at cycle   2 NSaved=   2.
 NSaved= 2 IEnMin= 2 EnMin= -76.2393497877733     IErMin= 2 ErrMin= 3.74D-06
 ErrMax= 3.74D-06  0.00D+00 EMaxC= 1.00D-01 BMatC= 5.87D-10 BMatP= 1.37D-09
 IDIUse=1 WtCom= 1.00D+00 WtEn= 0.00D+00
 Coeff-Com: -0.678D+00 0.168D+01
 Coeff:     -0.678D+00 0.168D+01
 Gap=     0.113 Goal=   None    Shift=    0.000
 Gap=     0.215 Goal=   None    Shift=    0.000
 RMSDP=2.11D-06 MaxDP=2.72D-05 DE=-2.11D-09 OVMax= 5.32D-05

 Cycle   9  Pass 1  IDiag  1:
 E= -76.2393497886427     Delta-E=       -0.000000000869 Rises=F Damp=F
 DIIS: error= 3.88D-06 at cycle   3 NSaved=   3.
 NSaved= 3 IEnMin= 3 EnMin= -76.2393497886427     IErMin= 2 ErrMin= 3.74D-06
 ErrMax= 3.88D-06  0.00D+00 EMaxC= 1.00D-01 BMatC= 1.36D-09 BMatP= 5.87D-10
 IDIUse=1 WtCom= 1.00D+00 WtEn= 0.00D+00
 Coeff-Com: -0.945D+00 0.153D+01 0.419D+00
 Coeff:     -0.945D+00 0.153D+01 0.419D+00
 Gap=     0.113 Goal=   None    Shift=    0.000
 Gap=     0.215 Goal=   None    Shift=    0.000
 RMSDP=9.97D-07 MaxDP=1.12D-05 DE=-8.69D-10 OVMax= 2.06D-05

 Cycle  10  Pass 1  IDiag  1:
 E= -76.2393497890933     Delta-E=       -0.000000000451 Rises=F Damp=F
 DIIS: error= 3.88D-07 at cycle   4 NSaved=   4.
 NSaved= 4 IEnMin= 4 EnMin= -76.2393497890933     IErMin= 4 ErrMin= 3.88D-07
 ErrMax= 3.88D-07  0.00D+00 EMaxC= 1.00D-01 BMatC= 7.33D-12 BMatP= 5.87D-10
 IDIUse=1 WtCom= 1.00D+00 WtEn= 0.00D+00
 Coeff-Com:  0.128D-01-0.106D+00-0.478D-01 0.114D+01
 Coeff:      0.128D-01-0.106D+00-0.478D-01 0.114D+01
 Gap=     0.113 Goal=   None    Shift=    0.000
 Gap=     0.215 Goal=   None    Shift=    0.000
 RMSDP=3.12D-07 MaxDP=3.41D-06 DE=-4.51D-10 OVMax= 6.44D-06

 Cycle  11  Pass 1  IDiag  1:
 E= -76.2393497891085     Delta-E=       -0.000000000015 Rises=F Damp=F
 DIIS: error= 7.84D-08 at cycle   5 NSaved=   5.
 NSaved= 5 IEnMin= 5 EnMin= -76.2393497891085     IErMin= 5 ErrMin= 7.84D-08
 ErrMax= 7.84D-08  0.00D+00 EMaxC= 1.00D-01 BMatC= 3.42D-13 BMatP= 7.33D-12
 IDIUse=1 WtCom= 1.00D+00 WtEn= 0.00D+00
 Coeff-Com:  0.432D-01-0.775D-01-0.134D-01 0.434D-01 0.100D+01
 Coeff:      0.432D-01-0.775D-01-0.134D-01 0.434D-01 0.100D+01
 Gap=     0.113 Goal=   None    Shift=    0.000
 Gap=     0.215 Goal=   None    Shift=    0.000
 RMSDP=3.81D-08 MaxDP=3.98D-07 DE=-1.51D-11 OVMax= 7.40D-07

 Cycle  12  Pass 1  IDiag  1:
 E= -76.2393497891087     Delta-E=       -0.000000000000 Rises=F Damp=F
 DIIS: error= 1.68D-08 at cycle   6 NSaved=   6.
 NSaved= 6 IEnMin= 6 EnMin= -76.2393497891087     IErMin= 6 ErrMin= 1.68D-08
 ErrMax= 1.68D-08  0.00D+00 EMaxC= 1.00D-01 BMatC= 1.83D-14 BMatP= 3.42D-13
 IDIUse=1 WtCom= 1.00D+00 WtEn= 0.00D+00
 Coeff-Com:  0.383D-02-0.370D-02 0.283D-02-0.500D-01 0.109D+00 0.938D+00
 Coeff:      0.383D-02-0.370D-02 0.283D-02-0.500D-01 0.109D+00 0.938D+00
 Gap=     0.113 Goal=   None    Shift=    0.000
 Gap=     0.215 Goal=   None    Shift=    0.000
 RMSDP=5.19D-09 MaxDP=4.77D-08 DE=-2.27D-13 OVMax= 9.60D-08

 SCF Done:  E(UB3LYP) =  -76.2393497891     A.U. after   12 cycles
            NFock= 12  Conv=0.52D-08     -V/T= 2.0055
 <Sx>= 0.0000 <Sy>= 0.0000 <Sz>= 0.5000 <S**2>= 0.7551 S= 0.5026
 <L.S>= 0.000000000000E+00
 KE= 7.582258067475D+01 PE=-1.968259733723D+02 EE= 3.840483386236D+01
 Annihilation of the first spin contaminant:
 S**2 before annihilation     0.7551,   after     0.7500
 Leave Link  502 at Tue Jun  8 12:07:47 2021, MaxMem=   134217728 cpu:               2.9 elap:               0.2
 (Enter /APL/ISV/x86_64/gaussian/16/C.01/g16/l701.exe)
 ... and contract with generalized density number  0.
 Compute integral first derivatives.
 Leave Link  701 at Tue Jun  8 12:07:47 2021, MaxMem=   134217728 cpu:               1.5 elap:               0.1
 (Enter /APL/ISV/x86_64/gaussian/16/C.01/g16/l702.exe)
 L702 exits ... SP integral derivatives will be done elsewhere.
 Leave Link  702 at Tue Jun  8 12:07:47 2021, MaxMem=   134217728 cpu:               0.5 elap:               0.1
 (Enter /APL/ISV/x86_64/gaussian/16/C.01/g16/l703.exe)
 Integral derivatives from FoFJK, PRISM(SPDF).
 Compute integral first derivatives, UseDBF=F ICtDFT=           0.
 Calling FoFJK, ICntrl=      2127 FMM=F ISym2X=1 I1Cent= 0 IOpClX= 1 NMat=1 NMatS=1 NMatT=0.
 FoFJK:  IHMeth= 1 ICntrl=    2127 DoSepK=F KAlg= 0 I1Cent=           0 FoldK=F
 IRaf=         0 NMat=       1 IRICut=       1 DoRegI=T DoRafI=F ISym2E= 1 IDoP0=0 IntGTp=1.
 FoFCou: FMM=F IPFlag=           0 FMFlag=      100000 FMFlg1=         800
         NFxFlg=           0 DoJE=F BraDBF=F KetDBF=F FulRan=T
         wScrn=  0.000000 ICntrl=      2127 IOpCl=  1 I1Cent=           0 NGrid=           0
         NMat0=    1 NMatS0=      1 NMatT0=    0 NMatD0=    1 NMtDS0=    0 NMtDT0=    0
 Petite list used in FoFCou.
 Leave Link  703 at Tue Jun  8 12:07:47 2021, MaxMem=   134217728 cpu:               2.0 elap:               0.1
 (Enter /APL/ISV/x86_64/gaussian/16/C.01/g16/l716.exe)
 Dipole        = 7.34582142D-17 0.00000000D+00 4.83191380D-01
 ***** Axes restored to original set *****
 -------------------------------------------------------------------
 Center     Atomic                   Forces (Hartrees/Bohr)
 Number     Number              X              Y              Z
 -------------------------------------------------------------------
      1        8           0.048030839    0.048030839    0.000000000
      2        1          -0.044702925   -0.003327915   -0.000000000
      3        1          -0.003327915   -0.044702925   -0.000000000
 -------------------------------------------------------------------
 Cartesian Forces:  Max     0.048030839 RMS     0.030970911
 Leave Link  716 at Tue Jun  8 12:07:47 2021, MaxMem=   134217728 cpu:               0.6 elap:               0.1
 (Enter /APL/ISV/x86_64/gaussian/16/C.01/g16/l103.exe)

 GradGradGradGradGradGradGradGradGradGradGradGradGradGradGradGradGradGrad
 Berny optimization.
 Using GEDIIS/GDIIS optimizer.
 FormGI is forming the generalized inverse of G from B-inverse, IUseBI=4.
 Internal  Forces:  Max     0.044617373 RMS     0.037015184
 Search for a local minimum.
 Step number   2 out of a maximum of   20
 All quantities printed in internal units (Hartrees-Bohrs-Radians)
 RMS Force = .37015D-01 SwitMx=.10000D-02 MixMth= 1
 Mixed Optimization -- RFO/linear search
 Update second derivatives using D2CorX and points    1    2
 DE= -1.92D-02 DEPred=-1.40D-02 R= 1.38D+00
 TightC=F SS=  1.41D+00  RLast= 3.00D-01 DXNew= 5.0454D-01 9.0000D-01
 Trust test= 1.38D+00 RLast= 3.00D-01 DXMaxT set to 5.05D-01
 The second derivative matrix:
                          R1        R2        A1
           R1           0.05706
           R2          -0.05626   0.05706
           A1           0.01237   0.01237   0.14237
 ITU=  1  0
 Use linear search instead of GDIIS.
     Eigenvalues ---   -0.00133   0.11333   0.14450
 Eigenvalue     1 is  -1.33D-03 should be greater than     0.000000 Eigenvector:
                          R2        R1        A1
   1                    0.70192   0.70192  -0.12085
 RFO step:  Lambda=-6.47085616D-02 EMin=-1.33054346D-03
 Skip linear search -- no minimum in search direction.
 Maximum step size (   0.505) exceeded in Quadratic search.
    -- Step size scaled by   0.504
 Iteration  1 RMS(Cart)=  0.11699569 RMS(Int)=  0.12665427
 Iteration  2 RMS(Cart)=  0.10872686 RMS(Int)=  0.00022531
 Iteration  3 RMS(Cart)=  0.00028321 RMS(Int)=  0.00000004
 Iteration  4 RMS(Cart)=  0.00000003 RMS(Int)=  0.00000000
 ITry= 1 IFail=0 DXMaxC= 2.14D-01 DCOld= 1.00D+10 DXMaxT= 5.05D-01 DXLimC= 3.00D+00 Rises=F
 ClnCor:  largest displacement from symmetrization is 7.56D-15 for atom     3.
 Variable       Old X    -DE/DX   Delta X   Delta X   Delta X     New X
                                 (Linear)    (Quad)   (Total)
    R1        2.62483  -0.04462   0.00000  -0.35334  -0.35334   2.27148
    R2        2.62483  -0.04462   0.00000  -0.35334  -0.35334   2.27148
    A1        1.61550   0.01136   0.00000   0.06969   0.06969   1.68520
         Item               Value     Threshold  Converged?
 Maximum Force            0.044617     0.000450     NO 
 RMS     Force            0.037015     0.000300     NO 
 Maximum Displacement     0.213871     0.001800     NO 
 RMS     Displacement     0.217785     0.001200     NO 
 Predicted change in Energy=-3.248552D-02
 Lowest energy point so far.  Saving SCF results.
 GradGradGradGradGradGradGradGradGradGradGradGradGradGradGradGradGradGrad

 Leave Link  103 at Tue Jun  8 12:07:47 2021, MaxMem=   134217728 cpu:               0.2 elap:               0.0
 (Enter /APL/ISV/x86_64/gaussian/16/C.01/g16/l202.exe)
                          Input orientation:                          
 ---------------------------------------------------------------------
 Center     Atomic      Atomic             Coordinates (Angstroms)
 Number     Number       Type             X           Y           Z
 ---------------------------------------------------------------------
      1          8           0        0.122889    0.122889    0.000000
      2          1           0        1.322940    0.054171   -0.000000
      3          1           0        0.054171    1.322940    0.000000
 ---------------------------------------------------------------------
                    Distance matrix (angstroms):
                    1          2          3
     1  O    0.000000
     2  H    1.202017   0.000000
     3  H    1.202017   1.794312   0.000000
 Stoichiometry    H2O(1-,2)
 Framework group  C2V[C2(O),SGV(H2)]
 Deg. of freedom     2
 Full point group                 C2V     NOp   4
 RotChk:  IX=0 Diff= 2.01D-15
 Largest Abelian subgroup         C2V     NOp   4
 Largest concise Abelian subgroup C2      NOp   2
                         Standard orientation:                         
 ---------------------------------------------------------------------
 Center     Atomic      Atomic             Coordinates (Angstroms)
 Number     Number       Type             X           Y           Z
 ---------------------------------------------------------------------
      1          8           0       -0.000000    0.000000    0.159995
      2          1           0       -0.000000    0.897156   -0.639979
      3          1           0       -0.000000   -0.897156   -0.639979
 ---------------------------------------------------------------------
 Rotational constants (GHZ):         441.1601981         311.5059507         182.5829780
 Leave Link  202 at Tue Jun  8 12:07:47 2021, MaxMem=   134217728 cpu:               0.2 elap:               0.0
 (Enter /APL/ISV/x86_64/gaussian/16/C.01/g16/l301.exe)
 Standard basis: CC-pVDZ (5D, 7F)
 Ernie: Thresh=  0.10000D-02 Tol=  0.10000D-05 Strict=F.
 Ernie:  2 primitive shells out of 32 were deleted.
 There are    12 symmetry adapted cartesian basis functions of A1  symmetry.
 There are     2 symmetry adapted cartesian basis functions of A2  symmetry.
 There are     4 symmetry adapted cartesian basis functions of B1  symmetry.
 There are     7 symmetry adapted cartesian basis functions of B2  symmetry.
 There are    11 symmetry adapted basis functions of A1  symmetry.
 There are     2 symmetry adapted basis functions of A2  symmetry.
 There are     4 symmetry adapted basis functions of B1  symmetry.
 There are     7 symmetry adapted basis functions of B2  symmetry.
    24 basis functions,    47 primitive gaussians,    25 cartesian basis functions
     6 alpha electrons        5 beta electrons
       nuclear repulsion energy         7.3387732078 Hartrees.
 IExCor=  402 DFT=T Ex+Corr=B3LYP ExCW=0 ScaHFX=  0.200000
 ScaDFX=  0.800000  0.720000  1.000000  0.810000 ScalE2=  1.000000  1.000000
 IRadAn=      5 IRanWt=     -1 IRanGd=            0 ICorTp=0 IEmpDi=  4
 NAtoms=    3 NActive=    3 NUniq=    2 SFac= 2.25D+00 NAtFMM=   60 NAOKFM=F Big=F
 Integral buffers will be    131072 words long.
 Raffenetti 2 integral format.
 Two-electron integral symmetry is turned on.
 Leave Link  301 at Tue Jun  8 12:07:47 2021, MaxMem=   134217728 cpu:               0.9 elap:               0.1
 (Enter /APL/ISV/x86_64/gaussian/16/C.01/g16/l302.exe)
 NPDir=0 NMtPBC=     1 NCelOv=     1 NCel=       1 NClECP=     1 NCelD=      1
         NCelK=      1 NCelE2=     1 NClLst=     1 CellRange=     0.0.
 One-electron integrals computed using PRISM.
 One-electron integral symmetry used in STVInt
 NBasis=    24 RedAO= T EigKep=  5.67D-02  NBF=    11     2     4     7
 NBsUse=    24 1.00D-06 EigRej= -1.00D+00 NBFU=    11     2     4     7
 Precomputing XC quadrature grid using
 IXCGrd= 4 IRadAn=           5 IRanWt=          -1 IRanGd=           0 AccXCQ= 0.00D+00.
 Generated NRdTot=       0 NPtTot=           0 NUsed=           0 NTot=          32
 NSgBfM=    25    25    25    25    25 MxSgAt=     3 MxSgA2=     3.
 Leave Link  302 at Tue Jun  8 12:07:47 2021, MaxMem=   134217728 cpu:               1.5 elap:               0.1
 (Enter /APL/ISV/x86_64/gaussian/16/C.01/g16/l303.exe)
 DipDrv:  MaxL=1.
 Leave Link  303 at Tue Jun  8 12:07:47 2021, MaxMem=   134217728 cpu:               0.4 elap:               0.0
 (Enter /APL/ISV/x86_64/gaussian/16/C.01/g16/l401.exe)
 Initial guess from the checkpoint file:  "water_anion.chk"
 B after Tr=     0.000000    0.000000   -0.000000
         Rot=    1.000000   -0.000000   -0.000000    0.000000 Ang=   0.00 deg.
 Guess basis will be translated and rotated to current coordinates.
 JPrj=2 DoOrth=T DoCkMO=T.
 Initial guess orbital symmetries:
 Alpha Orbitals:
       Occupied  (A1) (A1) (B2) (A1) (B1) (A1)
       Virtual   (B2) (B2) (A1) (B1) (A1) (B2) (A1) (A2) (A1) (B1)
                 (B2) (B2) (A1) (B1) (A2) (A1) (A1) (B2)
 Beta  Orbitals:
       Occupied  (A1) (A1) (B2) (A1) (B1)
       Virtual   (A1) (B2) (B2) (A1) (B1) (A1) (B2) (A1) (A2) (A1)
                 (B1) (B2) (B2) (A1) (A2) (B1) (A1) (A1) (B2)
 The electronic state of the initial guess is 2-A1.
 Initial guess <Sx>= 0.0000 <Sy>= 0.0000 <Sz>= 0.5000 <S**2>= 0.7542 S= 0.5021
 Generating alternative initial guess.
 ExpMin= 1.22D-01 ExpMax= 1.17D+04 ExpMxC= 4.01D+02 IAcc=3 IRadAn=         5 AccDes= 0.00D+00
 Harris functional with IExCor=  402 and IRadAn=       5 diagonalized for initial guess.
 HarFok:  IExCor=  402 AccDes= 0.00D+00 IRadAn=         5 IDoV= 1 UseB2=F ITyADJ=14
 ICtDFT=  3500011 ScaDFX=  1.000000  1.000000  1.000000  1.000000
 FoFCou: FMM=F IPFlag=           0 FMFlag=      100000 FMFlg1=           0
         NFxFlg=           0 DoJE=T BraDBF=F KetDBF=T FulRan=T
         wScrn=  0.000000 ICntrl=       500 IOpCl=  0 I1Cent=   200000004 NGrid=           0
         NMat0=    1 NMatS0=      1 NMatT0=    0 NMatD0=    1 NMtDS0=    0 NMtDT0=    0
 Petite list used in FoFCou.
 Harris En= -76.4678775112754    
 Leave Link  401 at Tue Jun  8 12:07:48 2021, MaxMem=   134217728 cpu:               2.9 elap:               0.2
 (Enter /APL/ISV/x86_64/gaussian/16/C.01/g16/l502.exe)
 Keep R1 and R2 ints in memory in symmetry-blocked form, NReq=13860511.
 FoFCou: FMM=F IPFlag=           0 FMFlag=           0 FMFlg1=           0
         NFxFlg=           0 DoJE=F BraDBF=F KetDBF=F FulRan=T
         wScrn=  0.000000 ICntrl=       600 IOpCl=  0 I1Cent=           0 NGrid=           0
         NMat0=    1 NMatS0=    300 NMatT0=    0 NMatD0=    1 NMtDS0=    0 NMtDT0=    0
 Petite list used in FoFCou.
 UHF open shell SCF:
 Using DIIS extrapolation, IDIIS=  1040.
 NGot=   134217728 LenX=   134189263 LenY=   134188197
 Requested convergence on RMS density matrix=1.00D-08 within 128 cycles.
 Requested convergence on MAX density matrix=1.00D-06.
 Requested convergence on             energy=1.00D-06.
 No special actions if energy rises.
 Integral accuracy reduced to 1.0D-05 until final iterations.

 Cycle   1  Pass 0  IDiag  1:
 E= -76.2565183068818    
 DIIS: error= 2.20D-02 at cycle   1 NSaved=   1.
 NSaved= 1 IEnMin= 1 EnMin= -76.2565183068818     IErMin= 1 ErrMin= 2.20D-02
 ErrMax= 2.20D-02  0.00D+00 EMaxC= 1.00D-01 BMatC= 2.74D-02 BMatP= 2.74D-02
 IDIUse=3 WtCom= 7.80D-01 WtEn= 2.20D-01
 Coeff-Com:  0.100D+01
 Coeff-En:   0.100D+01
 Coeff:      0.100D+01
 Recover alternate guess density for next cycle.
 RMSDP=1.52D-02 MaxDP=1.50D-01              OVMax= 0.00D+00

 Cycle   2  Pass 0  IDiag  1:
 E= -76.1300100664611     Delta-E=        0.126508240421 Rises=F Damp=F
 Switch densities from cycles 1 and 2 for lowest energy.
 DIIS: error= 7.41D-02 at cycle   2 NSaved=   2.
 NSaved= 2 IEnMin= 1 EnMin= -76.2565183068818     IErMin= 1 ErrMin= 2.20D-02
 ErrMax= 7.41D-02  0.00D+00 EMaxC= 1.00D+00 BMatC= 6.41D-01 BMatP= 2.74D-02
 IDIUse=1 WtCom= 1.00D+00 WtEn= 0.00D+00
 Coeff-Com:  0.934D+00 0.665D-01
 Coeff:      0.934D+00 0.665D-01
 Gap=     0.182 Goal=   None    Shift=    0.000
 Gap=     0.291 Goal=   None    Shift=    0.000
 RMSDP=1.03D-02 MaxDP=1.05D-01 DE= 1.27D-01 OVMax= 7.32D-02

 Cycle   3  Pass 0  IDiag  1:
 E= -76.2691836947205     Delta-E=       -0.139173628259 Rises=F Damp=F
 DIIS: error= 3.77D-03 at cycle   3 NSaved=   3.
 NSaved= 3 IEnMin= 3 EnMin= -76.2691836947205     IErMin= 3 ErrMin= 3.77D-03
 ErrMax= 3.77D-03  0.00D+00 EMaxC= 1.00D+00 BMatC= 1.57D-03 BMatP= 2.74D-02
 IDIUse=1 WtCom= 1.00D+00 WtEn= 0.00D+00
 Coeff-Com: -0.428D-01 0.390D-01 0.100D+01
 Coeff:     -0.428D-01 0.390D-01 0.100D+01
 Gap=     0.119 Goal=   None    Shift=    0.000
 Gap=     0.247 Goal=   None    Shift=    0.000
 RMSDP=1.95D-03 MaxDP=1.58D-02 DE=-1.39D-01 OVMax= 2.60D-02

 Cycle   4  Pass 0  IDiag  1:
 E= -76.2698090166431     Delta-E=       -0.000625321923 Rises=F Damp=F
 DIIS: error= 1.29D-03 at cycle   4 NSaved=   4.
 NSaved= 4 IEnMin= 4 EnMin= -76.2698090166431     IErMin= 4 ErrMin= 1.29D-03
 ErrMax= 1.29D-03  0.00D+00 EMaxC= 1.00D+00 BMatC= 9.99D-05 BMatP= 1.57D-03
 IDIUse=1 WtCom= 1.00D+00 WtEn= 0.00D+00
 Coeff-Com: -0.335D-01 0.358D-02 0.204D+00 0.825D+00
 Coeff:     -0.335D-01 0.358D-02 0.204D+00 0.825D+00
 Gap=     0.119 Goal=   None    Shift=    0.000
 Gap=     0.245 Goal=   None    Shift=    0.000
 RMSDP=2.68D-04 MaxDP=1.76D-03 DE=-6.25D-04 OVMax= 2.96D-03

 Cycle   5  Pass 0  IDiag  1:
 E= -76.2698394903103     Delta-E=       -0.000030473667 Rises=F Damp=F
 DIIS: error= 1.88D-04 at cycle   5 NSaved=   5.
 NSaved= 5 IEnMin= 5 EnMin= -76.2698394903103     IErMin= 5 ErrMin= 1.88D-04
 ErrMax= 1.88D-04  0.00D+00 EMaxC= 1.00D+00 BMatC= 3.53D-06 BMatP= 9.99D-05
 IDIUse=1 WtCom= 1.00D+00 WtEn= 0.00D+00
 Coeff-Com:  0.567D-02-0.177D-02-0.809D-01-0.586D-01 0.114D+01
 Coeff:      0.567D-02-0.177D-02-0.809D-01-0.586D-01 0.114D+01
 Gap=     0.119 Goal=   None    Shift=    0.000
 Gap=     0.245 Goal=   None    Shift=    0.000
 RMSDP=1.22D-04 MaxDP=1.16D-03 DE=-3.05D-05 OVMax= 2.12D-03

 Cycle   6  Pass 0  IDiag  1:
 E= -76.2698419012200     Delta-E=       -0.000002410910 Rises=F Damp=F
 DIIS: error= 2.63D-05 at cycle   6 NSaved=   6.
 NSaved= 6 IEnMin= 6 EnMin= -76.2698419012200     IErMin= 6 ErrMin= 2.63D-05
 ErrMax= 2.63D-05  0.00D+00 EMaxC= 1.00D+00 BMatC= 6.06D-08 BMatP= 3.53D-06
 IDIUse=1 WtCom= 1.00D+00 WtEn= 0.00D+00
 Coeff-Com: -0.280D-03 0.107D-03 0.852D-02-0.554D-03-0.176D+00 0.117D+01
 Coeff:     -0.280D-03 0.107D-03 0.852D-02-0.554D-03-0.176D+00 0.117D+01
 Gap=     0.119 Goal=   None    Shift=    0.000
 Gap=     0.245 Goal=   None    Shift=    0.000
 RMSDP=1.18D-05 MaxDP=1.40D-04 DE=-2.41D-06 OVMax= 2.28D-04

 Cycle   7  Pass 0  IDiag  1:
 E= -76.2698419544716     Delta-E=       -0.000000053252 Rises=F Damp=F
 DIIS: error= 1.03D-05 at cycle   7 NSaved=   7.
 NSaved= 7 IEnMin= 7 EnMin= -76.2698419544716     IErMin= 7 ErrMin= 1.03D-05
 ErrMax= 1.03D-05  0.00D+00 EMaxC= 1.00D+00 BMatC= 5.46D-09 BMatP= 6.06D-08
 IDIUse=1 WtCom= 1.00D+00 WtEn= 0.00D+00
 Coeff-Com: -0.165D-03 0.246D-04 0.720D-03 0.201D-02 0.124D-01-0.382D+00
 Coeff-Com:  0.137D+01
 Coeff:     -0.165D-03 0.246D-04 0.720D-03 0.201D-02 0.124D-01-0.382D+00
 Coeff:      0.137D+01
 Gap=     0.119 Goal=   None    Shift=    0.000
 Gap=     0.245 Goal=   None    Shift=    0.000
 RMSDP=4.48D-06 MaxDP=4.40D-05 DE=-5.33D-08 OVMax= 8.02D-05

 Initial convergence to 1.0D-05 achieved.  Increase integral accuracy.
 Cycle   8  Pass 1  IDiag  1:
 E= -76.2698406379730     Delta-E=        0.000001316499 Rises=F Damp=F
 DIIS: error= 2.73D-06 at cycle   1 NSaved=   1.
 NSaved= 1 IEnMin= 1 EnMin= -76.2698406379730     IErMin= 1 ErrMin= 2.73D-06
 ErrMax= 2.73D-06  0.00D+00 EMaxC= 1.00D+00 BMatC= 3.64D-10 BMatP= 3.64D-10
 IDIUse=1 WtCom= 1.00D+00 WtEn= 0.00D+00
 Coeff-Com:  0.100D+01
 Coeff:      0.100D+01
 Gap=     0.119 Goal=   None    Shift=    0.000
 Gap=     0.245 Goal=   None    Shift=    0.000
 RMSDP=4.48D-06 MaxDP=4.40D-05 DE= 1.32D-06 OVMax= 1.65D-05

 Cycle   9  Pass 1  IDiag  1:
 E= -76.2698406383541     Delta-E=       -0.000000000381 Rises=F Damp=F
 DIIS: error= 1.51D-06 at cycle   2 NSaved=   2.
 NSaved= 2 IEnMin= 2 EnMin= -76.2698406383541     IErMin= 2 ErrMin= 1.51D-06
 ErrMax= 1.51D-06  0.00D+00 EMaxC= 1.00D+00 BMatC= 9.31D-11 BMatP= 3.64D-10
 IDIUse=1 WtCom= 1.00D+00 WtEn= 0.00D+00
 Coeff-Com: -0.493D+00 0.149D+01
 Coeff:     -0.493D+00 0.149D+01
 Gap=     0.119 Goal=   None    Shift=    0.000
 Gap=     0.245 Goal=   None    Shift=    0.000
 RMSDP=6.21D-07 MaxDP=7.75D-06 DE=-3.81D-10 OVMax= 1.38D-05

 Cycle  10  Pass 1  IDiag  1:
 E= -76.2698406384478     Delta-E=       -0.000000000094 Rises=F Damp=F
 DIIS: error= 1.08D-06 at cycle   3 NSaved=   3.
 NSaved= 3 IEnMin= 3 EnMin= -76.2698406384478     IErMin= 3 ErrMin= 1.08D-06
 ErrMax= 1.08D-06  0.00D+00 EMaxC= 1.00D+00 BMatC= 1.07D-10 BMatP= 9.31D-11
 IDIUse=1 WtCom= 1.00D+00 WtEn= 0.00D+00
 Coeff-Com: -0.451D+00 0.101D+01 0.444D+00
 Coeff:     -0.451D+00 0.101D+01 0.444D+00
 Gap=     0.119 Goal=   None    Shift=    0.000
 Gap=     0.245 Goal=   None    Shift=    0.000
 RMSDP=2.06D-07 MaxDP=2.24D-06 DE=-9.37D-11 OVMax= 3.70D-06

 Cycle  11  Pass 1  IDiag  1:
 E= -76.2698406384748     Delta-E=       -0.000000000027 Rises=F Damp=F
 DIIS: error= 1.98D-07 at cycle   4 NSaved=   4.
 NSaved= 4 IEnMin= 4 EnMin= -76.2698406384748     IErMin= 4 ErrMin= 1.98D-07
 ErrMax= 1.98D-07  0.00D+00 EMaxC= 1.00D+00 BMatC= 3.10D-12 BMatP= 9.31D-11
 IDIUse=1 WtCom= 1.00D+00 WtEn= 0.00D+00
 Coeff-Com: -0.124D-01-0.101D+00 0.992D-01 0.101D+01
 Coeff:     -0.124D-01-0.101D+00 0.992D-01 0.101D+01
 Gap=     0.119 Goal=   None    Shift=    0.000
 Gap=     0.245 Goal=   None    Shift=    0.000
 RMSDP=8.57D-08 MaxDP=9.79D-07 DE=-2.70D-11 OVMax= 1.66D-06

 Cycle  12  Pass 1  IDiag  1:
 E= -76.2698406384767     Delta-E=       -0.000000000002 Rises=F Damp=F
 DIIS: error= 3.44D-08 at cycle   5 NSaved=   5.
 NSaved= 5 IEnMin= 5 EnMin= -76.2698406384767     IErMin= 5 ErrMin= 3.44D-08
 ErrMax= 3.44D-08  0.00D+00 EMaxC= 1.00D+00 BMatC= 8.18D-14 BMatP= 3.10D-12
 IDIUse=1 WtCom= 1.00D+00 WtEn= 0.00D+00
 Coeff-Com:  0.128D-01-0.335D-01 0.823D-02-0.179D-02 0.101D+01
 Coeff:      0.128D-01-0.335D-01 0.823D-02-0.179D-02 0.101D+01
 Gap=     0.119 Goal=   None    Shift=    0.000
 Gap=     0.245 Goal=   None    Shift=    0.000
 RMSDP=9.05D-09 MaxDP=7.79D-08 DE=-1.90D-12 OVMax= 1.42D-07

 SCF Done:  E(UB3LYP) =  -76.2698406385     A.U. after   12 cycles
            NFock= 12  Conv=0.90D-08     -V/T= 2.0036
 <Sx>= 0.0000 <Sy>= 0.0000 <Sz>= 0.5000 <S**2>= 0.7526 S= 0.5013
 <L.S>= 0.000000000000E+00
 KE= 7.599964415299D+01 PE=-1.989259652704D+02 EE= 3.931770727118D+01
 Annihilation of the first spin contaminant:
 S**2 before annihilation     0.7526,   after     0.7500
 Leave Link  502 at Tue Jun  8 12:07:48 2021, MaxMem=   134217728 cpu:               2.8 elap:               0.2
 (Enter /APL/ISV/x86_64/gaussian/16/C.01/g16/l701.exe)
 ... and contract with generalized density number  0.
 Compute integral first derivatives.
 Leave Link  701 at Tue Jun  8 12:07:48 2021, MaxMem=   134217728 cpu:               1.4 elap:               0.1
 (Enter /APL/ISV/x86_64/gaussian/16/C.01/g16/l702.exe)
 L702 exits ... SP integral derivatives will be done elsewhere.
 Leave Link  702 at Tue Jun  8 12:07:48 2021, MaxMem=   134217728 cpu:               0.4 elap:               0.0
 (Enter /APL/ISV/x86_64/gaussian/16/C.01/g16/l703.exe)
 Integral derivatives from FoFJK, PRISM(SPDF).
 Compute integral first derivatives, UseDBF=F ICtDFT=           0.
 Calling FoFJK, ICntrl=      2127 FMM=F ISym2X=1 I1Cent= 0 IOpClX= 1 NMat=1 NMatS=1 NMatT=0.
 FoFJK:  IHMeth= 1 ICntrl=    2127 DoSepK=F KAlg= 0 I1Cent=           0 FoldK=F
 IRaf=         0 NMat=       1 IRICut=       1 DoRegI=T DoRafI=F ISym2E= 1 IDoP0=0 IntGTp=1.
 FoFCou: FMM=F IPFlag=           0 FMFlag=      100000 FMFlg1=         800
         NFxFlg=           0 DoJE=F BraDBF=F KetDBF=F FulRan=T
         wScrn=  0.000000 ICntrl=      2127 IOpCl=  1 I1Cent=           0 NGrid=           0
         NMat0=    1 NMatS0=      1 NMatT0=    0 NMatD0=    1 NMtDS0=    0 NMtDT0=    0
 Petite list used in FoFCou.
 Leave Link  703 at Tue Jun  8 12:07:48 2021, MaxMem=   134217728 cpu:               2.2 elap:               0.2
 (Enter /APL/ISV/x86_64/gaussian/16/C.01/g16/l716.exe)
 Dipole        = 8.32575663D-17 0.00000000D+00 3.86158563D-01
 ***** Axes restored to original set *****
 -------------------------------------------------------------------
 Center     Atomic                   Forces (Hartrees/Bohr)
 Number     Number              X              Y              Z
 -------------------------------------------------------------------
      1        8           0.037010759    0.037010759    0.000000000
      2        1          -0.037150585    0.000139826   -0.000000000
      3        1           0.000139826   -0.037150585   -0.000000000
 -------------------------------------------------------------------
 Cartesian Forces:  Max     0.037150585 RMS     0.024720580
 Leave Link  716 at Tue Jun  8 12:07:48 2021, MaxMem=   134217728 cpu:               0.4 elap:               0.0
 (Enter /APL/ISV/x86_64/gaussian/16/C.01/g16/l103.exe)

 GradGradGradGradGradGradGradGradGradGradGradGradGradGradGradGradGradGrad
 Berny optimization.
 Using GEDIIS/GDIIS optimizer.
 FormGI is forming the generalized inverse of G from B-inverse, IUseBI=4.
 Internal  Forces:  Max     0.037097819 RMS     0.030401818
 Search for a local minimum.
 Step number   3 out of a maximum of   20
 All quantities printed in internal units (Hartrees-Bohrs-Radians)
 RMS Force = .30402D-01 SwitMx=.10000D-02 MixMth= 1
 Mixed Optimization -- RFO/linear search
 Update second derivatives using D2CorX and points    2    3
 DE= -3.05D-02 DEPred=-3.25D-02 R= 9.39D-01
 TightC=F SS=  1.41D+00  RLast= 5.05D-01 DXNew= 8.4853D-01 1.5136D+00
 Trust test= 9.39D-01 RLast= 5.05D-01 DXMaxT set to 8.49D-01
 The second derivative matrix:
                          R1        R2        A1
           R1           0.06785
           R2          -0.04547   0.06785
           A1           0.00557   0.00557   0.15473
 ITU=  1  1  0
 Use linear search instead of GDIIS.
     Eigenvalues ---    0.02191   0.11333   0.15519
 RFO step:  Lambda=-4.37112327D-04 EMin= 2.19126313D-02
 Quartic linear search produced a step of  1.00014.
 Iteration  1 RMS(Cart)=  0.13050734 RMS(Int)=  0.14367228
 Iteration  2 RMS(Cart)=  0.12184521 RMS(Int)=  0.00010151
 Iteration  3 RMS(Cart)=  0.00010698 RMS(Int)=  0.00000001
 Iteration  4 RMS(Cart)=  0.00000001 RMS(Int)=  0.00000000
 ITry= 1 IFail=0 DXMaxC= 2.52D-01 DCOld= 1.00D+10 DXMaxT= 8.49D-01 DXLimC= 3.00D+00 Rises=F
 ClnCor:  largest displacement from symmetrization is 7.97D-14 for atom     3.
 Variable       Old X    -DE/DX   Delta X   Delta X   Delta X     New X
                                 (Linear)    (Quad)   (Total)
    R1        2.27148  -0.03710  -0.35339  -0.02244  -0.37584   1.89565
    R2        2.27148  -0.03710  -0.35339  -0.02244  -0.37584   1.89565
    A1        1.68520   0.00451   0.06970  -0.05008   0.01963   1.70482
         Item               Value     Threshold  Converged?
 Maximum Force            0.037098     0.000450     NO 
 RMS     Force            0.030402     0.000300     NO 
 Maximum Displacement     0.251891     0.001800     NO 
 RMS     Displacement     0.251896     0.001200     NO 
 Predicted change in Energy=-2.486508D-02
 Lowest energy point so far.  Saving SCF results.
 GradGradGradGradGradGradGradGradGradGradGradGradGradGradGradGradGradGrad

 Leave Link  103 at Tue Jun  8 12:07:48 2021, MaxMem=   134217728 cpu:               0.2 elap:               0.0
 (Enter /APL/ISV/x86_64/gaussian/16/C.01/g16/l202.exe)
                          Input orientation:                          
 ---------------------------------------------------------------------
 Center     Atomic      Atomic             Coordinates (Angstroms)
 Number     Number       Type             X           Y           Z
 ---------------------------------------------------------------------
      1          8           0        0.188764    0.188764    0.000000
      2          1           0        1.189646    0.121590   -0.000000
      3          1           0        0.121590    1.189646    0.000000
 ---------------------------------------------------------------------
                    Distance matrix (angstroms):
                    1          2          3
     1  O    0.000000
     2  H    1.003133   0.000000
     3  H    1.003133   1.510458   0.000000
 Stoichiometry    H2O(1-,2)
 Framework group  C2V[C2(O),SGV(H2)]
 Deg. of freedom     2
 Full point group                 C2V     NOp   4
 RotChk:  IX=0 Diff= 8.94D-16
 Largest Abelian subgroup         C2V     NOp   4
 Largest concise Abelian subgroup C2      NOp   2
                         Standard orientation:                         
 ---------------------------------------------------------------------
 Center     Atomic      Atomic             Coordinates (Angstroms)
 Number     Number       Type             X           Y           Z
 ---------------------------------------------------------------------
      1          8           0       -0.000000    0.000000    0.132046
      2          1           0       -0.000000    0.755229   -0.528185
      3          1           0       -0.000000   -0.755229   -0.528185
 ---------------------------------------------------------------------
 Rotational constants (GHZ):         647.6725344         439.5867586         261.8586678
 Leave Link  202 at Tue Jun  8 12:07:48 2021, MaxMem=   134217728 cpu:               0.2 elap:               0.0
 (Enter /APL/ISV/x86_64/gaussian/16/C.01/g16/l301.exe)
 Standard basis: CC-pVDZ (5D, 7F)
 Ernie: Thresh=  0.10000D-02 Tol=  0.10000D-05 Strict=F.
 Ernie:  2 primitive shells out of 32 were deleted.
 There are    12 symmetry adapted cartesian basis functions of A1  symmetry.
 There are     2 symmetry adapted cartesian basis functions of A2  symmetry.
 There are     4 symmetry adapted cartesian basis functions of B1  symmetry.
 There are     7 symmetry adapted cartesian basis functions of B2  symmetry.
 There are    11 symmetry adapted basis functions of A1  symmetry.
 There are     2 symmetry adapted basis functions of A2  symmetry.
 There are     4 symmetry adapted basis functions of B1  symmetry.
 There are     7 symmetry adapted basis functions of B2  symmetry.
    24 basis functions,    47 primitive gaussians,    25 cartesian basis functions
     6 alpha electrons        5 beta electrons
       nuclear repulsion energy         8.7907323320 Hartrees.
 IExCor=  402 DFT=T Ex+Corr=B3LYP ExCW=0 ScaHFX=  0.200000
 ScaDFX=  0.800000  0.720000  1.000000  0.810000 ScalE2=  1.000000  1.000000
 IRadAn=      5 IRanWt=     -1 IRanGd=            0 ICorTp=0 IEmpDi=  4
 NAtoms=    3 NActive=    3 NUniq=    2 SFac= 2.25D+00 NAtFMM=   60 NAOKFM=F Big=F
 Integral buffers will be    131072 words long.
 Raffenetti 2 integral format.
 Two-electron integral symmetry is turned on.
 Leave Link  301 at Tue Jun  8 12:07:48 2021, MaxMem=   134217728 cpu:               0.9 elap:               0.1
 (Enter /APL/ISV/x86_64/gaussian/16/C.01/g16/l302.exe)
 NPDir=0 NMtPBC=     1 NCelOv=     1 NCel=       1 NClECP=     1 NCelD=      1
         NCelK=      1 NCelE2=     1 NClLst=     1 CellRange=     0.0.
 One-electron integrals computed using PRISM.
 One-electron integral symmetry used in STVInt
 NBasis=    24 RedAO= T EigKep=  3.71D-02  NBF=    11     2     4     7
 NBsUse=    24 1.00D-06 EigRej= -1.00D+00 NBFU=    11     2     4     7
 Precomputing XC quadrature grid using
 IXCGrd= 4 IRadAn=           5 IRanWt=          -1 IRanGd=           0 AccXCQ= 0.00D+00.
 Generated NRdTot=       0 NPtTot=           0 NUsed=           0 NTot=          32
 NSgBfM=    25    25    25    25    25 MxSgAt=     3 MxSgA2=     3.
 Leave Link  302 at Tue Jun  8 12:07:49 2021, MaxMem=   134217728 cpu:               1.7 elap:               0.1
[...]
 IDIUse=1 WtCom= 1.00D+00 WtEn= 0.00D+00
 Coeff-Com:  0.100D+01
 Coeff:      0.100D+01
 Gap=     0.119 Goal=   None    Shift=    0.000
 Gap=     0.279 Goal=   None    Shift=    0.000
 RMSDP=3.53D-05 MaxDP=2.61D-04              OVMax= 2.22D-04

 Cycle   2  Pass 1  IDiag  1:
 E= -76.2832345835392     Delta-E=       -0.000000275484 Rises=F Damp=F
 DIIS: error= 2.20D-05 at cycle   2 NSaved=   2.
 NSaved= 2 IEnMin= 2 EnMin= -76.2832345835392     IErMin= 2 ErrMin= 2.20D-05
 ErrMax= 2.20D-05  0.00D+00 EMaxC= 1.00D-01 BMatC= 5.81D-08 BMatP= 8.16D-07
 IDIUse=1 WtCom= 1.00D+00 WtEn= 0.00D+00
 Coeff-Com:  0.761D-01 0.924D+00
 Coeff:      0.761D-01 0.924D+00
 Gap=     0.119 Goal=   None    Shift=    0.000
 Gap=     0.280 Goal=   None    Shift=    0.000
 RMSDP=7.83D-06 MaxDP=8.86D-05 DE=-2.75D-07 OVMax= 6.93D-05

 Cycle   3  Pass 1  IDiag  1:
 E= -76.2832345791002     Delta-E=        0.000000004439 Rises=F Damp=F
 DIIS: error= 2.46D-05 at cycle   3 NSaved=   3.
 NSaved= 3 IEnMin= 2 EnMin= -76.2832345835392     IErMin= 2 ErrMin= 2.20D-05
 ErrMax= 2.46D-05  0.00D+00 EMaxC= 1.00D-01 BMatC= 8.33D-08 BMatP= 5.81D-08
 IDIUse=1 WtCom= 1.00D+00 WtEn= 0.00D+00
 Coeff-Com: -0.130D-01 0.551D+00 0.462D+00
 Coeff:     -0.130D-01 0.551D+00 0.462D+00
 Gap=     0.119 Goal=   None    Shift=    0.000
 Gap=     0.279 Goal=   None    Shift=    0.000
 RMSDP=4.97D-06 MaxDP=5.35D-05 DE= 4.44D-09 OVMax= 4.61D-05

 Cycle   4  Pass 1  IDiag  1:
 E= -76.2832345941123     Delta-E=       -0.000000015012 Rises=F Damp=F
 DIIS: error= 3.56D-06 at cycle   4 NSaved=   4.
 NSaved= 4 IEnMin= 4 EnMin= -76.2832345941123     IErMin= 4 ErrMin= 3.56D-06
 ErrMax= 3.56D-06  0.00D+00 EMaxC= 1.00D-01 BMatC= 8.50D-10 BMatP= 5.81D-08
 IDIUse=1 WtCom= 1.00D+00 WtEn= 0.00D+00
 Coeff-Com: -0.523D-02 0.118D+00 0.151D+00 0.736D+00
 Coeff:     -0.523D-02 0.118D+00 0.151D+00 0.736D+00
 Gap=     0.119 Goal=   None    Shift=    0.000
 Gap=     0.279 Goal=   None    Shift=    0.000
 RMSDP=4.62D-07 MaxDP=3.10D-06 DE=-1.50D-08 OVMax= 5.97D-06

 Cycle   5  Pass 1  IDiag  1:
 E= -76.2832345942811     Delta-E=       -0.000000000169 Rises=F Damp=F
 DIIS: error= 3.31D-07 at cycle   5 NSaved=   5.
 NSaved= 5 IEnMin= 5 EnMin= -76.2832345942811     IErMin= 5 ErrMin= 3.31D-07
 ErrMax= 3.31D-07  0.00D+00 EMaxC= 1.00D-01 BMatC= 6.57D-12 BMatP= 8.50D-10
 IDIUse=1 WtCom= 1.00D+00 WtEn= 0.00D+00
 Coeff-Com: -0.279D-03-0.937D-02-0.269D-02 0.637D-01 0.949D+00
 Coeff:     -0.279D-03-0.937D-02-0.269D-02 0.637D-01 0.949D+00
 Gap=     0.119 Goal=   None    Shift=    0.000
 Gap=     0.279 Goal=   None    Shift=    0.000
 RMSDP=6.64D-08 MaxDP=5.43D-07 DE=-1.69D-10 OVMax= 6.31D-07

 Cycle   6  Pass 1  IDiag  1:
 E= -76.2832345942829     Delta-E=       -0.000000000002 Rises=F Damp=F
 DIIS: error= 5.75D-08 at cycle   6 NSaved=   6.
 NSaved= 6 IEnMin= 6 EnMin= -76.2832345942829     IErMin= 6 ErrMin= 5.75D-08
 ErrMax= 5.75D-08  0.00D+00 EMaxC= 1.00D-01 BMatC= 1.64D-13 BMatP= 6.57D-12
 IDIUse=1 WtCom= 1.00D+00 WtEn= 0.00D+00
 Coeff-Com:  0.179D-03-0.937D-03-0.321D-02-0.238D-01-0.182D+00 0.121D+01
 Coeff:      0.179D-03-0.937D-03-0.321D-02-0.238D-01-0.182D+00 0.121D+01
 Gap=     0.119 Goal=   None    Shift=    0.000
 Gap=     0.279 Goal=   None    Shift=    0.000
 RMSDP=2.50D-08 MaxDP=2.13D-07 DE=-1.83D-12 OVMax= 2.54D-07

 Cycle   7  Pass 1  IDiag  1:
 E= -76.2832345942830     Delta-E=       -0.000000000000 Rises=F Damp=F
 DIIS: error= 1.09D-08 at cycle   7 NSaved=   7.
 NSaved= 7 IEnMin= 7 EnMin= -76.2832345942830     IErMin= 7 ErrMin= 1.09D-08
 ErrMax= 1.09D-08  0.00D+00 EMaxC= 1.00D-01 BMatC= 5.25D-15 BMatP= 1.64D-13
 IDIUse=1 WtCom= 1.00D+00 WtEn= 0.00D+00
 Coeff-Com: -0.240D-04 0.300D-03 0.639D-03 0.188D-02 0.130D-01-0.175D+00
 Coeff-Com:  0.116D+01
 Coeff:     -0.240D-04 0.300D-03 0.639D-03 0.188D-02 0.130D-01-0.175D+00
 Coeff:      0.116D+01
 Gap=     0.119 Goal=   None    Shift=    0.000
 Gap=     0.279 Goal=   None    Shift=    0.000
 RMSDP=2.74D-09 MaxDP=3.24D-08 DE=-9.95D-14 OVMax= 5.34D-08

 SCF Done:  E(UB3LYP) =  -76.2832345943     A.U. after    7 cycles
            NFock=  7  Conv=0.27D-08     -V/T= 2.0003
 <Sx>= 0.0000 <Sy>= 0.0000 <Sz>= 0.5000 <S**2>= 0.7513 S= 0.5006
 <L.S>= 0.000000000000E+00
 KE= 7.625738499210D+01 PE=-2.011355961455D+02 EE= 4.018202697144D+01
 Annihilation of the first spin contaminant:
 S**2 before annihilation     0.7513,   after     0.7500
 Leave Link  502 at Tue Jun  8 12:07:52 2021, MaxMem=   134217728 cpu:               2.4 elap:               0.2
 (Enter /APL/ISV/x86_64/gaussian/16/C.01/g16/l701.exe)
 ... and contract with generalized density number  0.
 Compute integral first derivatives.
 Leave Link  701 at Tue Jun  8 12:07:52 2021, MaxMem=   134217728 cpu:               1.5 elap:               0.1
 (Enter /APL/ISV/x86_64/gaussian/16/C.01/g16/l702.exe)
 L702 exits ... SP integral derivatives will be done elsewhere.
 Leave Link  702 at Tue Jun  8 12:07:52 2021, MaxMem=   134217728 cpu:               0.5 elap:               0.1
 (Enter /APL/ISV/x86_64/gaussian/16/C.01/g16/l703.exe)
 Integral derivatives from FoFJK, PRISM(SPDF).
 Compute integral first derivatives, UseDBF=F ICtDFT=           0.
 Calling FoFJK, ICntrl=      2127 FMM=F ISym2X=1 I1Cent= 0 IOpClX= 1 NMat=1 NMatS=1 NMatT=0.
 FoFJK:  IHMeth= 1 ICntrl=    2127 DoSepK=F KAlg= 0 I1Cent=           0 FoldK=F
 IRaf=         0 NMat=       1 IRICut=       1 DoRegI=T DoRafI=F ISym2E= 1 IDoP0=0 IntGTp=1.
 FoFCou: FMM=F IPFlag=           0 FMFlag=      100000 FMFlg1=         800
         NFxFlg=           0 DoJE=F BraDBF=F KetDBF=F FulRan=T
         wScrn=  0.000000 ICntrl=      2127 IOpCl=  1 I1Cent=           0 NGrid=           0
         NMat0=    1 NMatS0=      1 NMatT0=    0 NMatD0=    1 NMtDS0=    0 NMtDT0=    0
 Petite list used in FoFCou.
 Leave Link  703 at Tue Jun  8 12:07:53 2021, MaxMem=   134217728 cpu:               2.1 elap:               0.2
 (Enter /APL/ISV/x86_64/gaussian/16/C.01/g16/l716.exe)
 Dipole        = 9.72114174D-17 2.22044605D-16 3.62641288D-01
 ***** Axes restored to original set *****
 -------------------------------------------------------------------
 Center     Atomic                   Forces (Hartrees/Bohr)
 Number     Number              X              Y              Z
 -------------------------------------------------------------------
      1        8          -0.000066508   -0.000066508    0.000000000
      2        1           0.000048283    0.000018224   -0.000000000
      3        1           0.000018224    0.000048283   -0.000000000
 -------------------------------------------------------------------
 Cartesian Forces:  Max     0.000066508 RMS     0.000039684
 Leave Link  716 at Tue Jun  8 12:07:53 2021, MaxMem=   134217728 cpu:               0.5 elap:               0.1
 (Enter /APL/ISV/x86_64/gaussian/16/C.01/g16/l103.exe)

 GradGradGradGradGradGradGradGradGradGradGradGradGradGradGradGradGradGrad
 Berny optimization.
 Using GEDIIS/GDIIS optimizer.
 FormGI is forming the generalized inverse of G from B-inverse, IUseBI=4.
 Internal  Forces:  Max     0.000046923 RMS     0.000045514
 Search for a local minimum.
 Step number   7 out of a maximum of   20
 All quantities printed in internal units (Hartrees-Bohrs-Radians)
 RMS Force = .45514D-04 SwitMx=.10000D-02 MixMth= 2
 Mixed Optimization -- En-DIIS/RFO-DIIS
 Swapping is turned off.
 Update second derivatives using D2CorX and points    4    5    6    7
 DE= -4.17D-07 DEPred=-3.69D-07 R= 1.13D+00
 Trust test= 1.13D+00 RLast= 2.52D-03 DXMaxT set to 8.49D-01
 The second derivative matrix:
                          R1        R2        A1
           R1           0.19068
           R2           0.07735   0.19068
           A1          -0.00011  -0.00011   0.10009
 ITU=  0  1  1  0
     Eigenvalues ---    0.10009   0.11333   0.26804
 En-DIIS/RFO-DIIS/Sim-DIIS IScMMF=       -3 using points:     7    6    5
 RFO step:  Lambda=-3.44907210D-08.
 NNeg= 0 NGDIIS= 3 SimSw=  2.50D-01 Rises=F DC= -4.17D-07 SmlDif=  1.00D-05
 NRisDI= 0 DoIntr=F SqrtH=F CThrHd= 10.0 CDAdj=  3.0
 RMS Error=  0.2837967475D-03 NUsed= 3 OKEnD=F EnDIS=F
 InvSVX:  RCond= 1.25D-07 Info=           0 Equed=N FErr=  9.09D-15 BErr=  4.44D-17
 DidBck=F Rises=F RFO-DIIS coefs:    1.37094   -0.46143    0.09049
 Iteration  1 RMS(Cart)=  0.00023514 RMS(Int)=  0.00000004
 Iteration  2 RMS(Cart)=  0.00000005 RMS(Int)=  0.00000000
 ITry= 1 IFail=0 DXMaxC= 2.12D-04 DCOld= 1.00D+10 DXMaxT= 8.49D-01 DXLimC= 3.00D+00 Rises=F
 ClnCor:  largest displacement from symmetrization is 3.34D-14 for atom     3.
 Variable       Old X    -DE/DX   Delta X   Delta X   Delta X     New X
                                 (Linear)    (Quad)   (Total)
    R1        1.98067   0.00005   0.00020   0.00000   0.00020   1.98087
    R2        1.98067   0.00005   0.00020  -0.00000   0.00020   1.98087
    A1        1.70780  -0.00004  -0.00043  -0.00000  -0.00043   1.70737
         Item               Value     Threshold  Converged?
 Maximum Force            0.000047     0.000450     YES
 RMS     Force            0.000046     0.000300     YES
 Maximum Displacement     0.000212     0.001800     YES
 RMS     Displacement     0.000235     0.001200     YES
 Predicted change in Energy=-1.706466D-08
 Optimization completed.
    -- Stationary point found.
                           ----------------------------
                           !   Optimized Parameters   !
                           ! (Angstroms and Degrees)  !
 --------------------------                            --------------------------
 ! Name  Definition              Value          Derivative Info.                !
 --------------------------------------------------------------------------------
 ! R1    R(1,2)                  1.0481         -DE/DX =    0.0                 !
 ! R2    R(1,3)                  1.0481         -DE/DX =    0.0                 !
 ! A1    A(2,1,3)               97.8497         -DE/DX =    0.0                 !
 --------------------------------------------------------------------------------
 Lowest energy point so far.  Saving SCF results.
 Largest change from initial coordinates is atom    2       0.402 Angstoms.
 GradGradGradGradGradGradGradGradGradGradGradGradGradGradGradGradGradGrad

 Leave Link  103 at Tue Jun  8 12:07:53 2021, MaxMem=   134217728 cpu:               0.2 elap:               0.0
 (Enter /APL/ISV/x86_64/gaussian/16/C.01/g16/l202.exe)
                          Input orientation:                          
 ---------------------------------------------------------------------
 Center     Atomic      Atomic             Coordinates (Angstroms)
 Number     Number       Type             X           Y           Z
 ---------------------------------------------------------------------
      1          8           0        0.175359    0.175359    0.000000
      2          1           0        1.221025    0.103616   -0.000000
      3          1           0        0.103616    1.221025    0.000000
 ---------------------------------------------------------------------
                    Distance matrix (angstroms):
                    1          2          3
     1  O    0.000000
     2  H    1.048125   0.000000
     3  H    1.048125   1.580254   0.000000
 Stoichiometry    H2O(1-,2)
 Framework group  C2V[C2(O),SGV(H2)]
 Deg. of freedom     2
 Full point group                 C2V     NOp   4
 RotChk:  IX=0 Diff= 5.52D-16
 Largest Abelian subgroup         C2V     NOp   4
 Largest concise Abelian subgroup C2      NOp   2
                         Standard orientation:                         
 ---------------------------------------------------------------------
 Center     Atomic      Atomic             Coordinates (Angstroms)
 Number     Number       Type             X           Y           Z
 ---------------------------------------------------------------------
      1          8           0        0.000000    0.000000    0.137734
      2          1           0       -0.000000    0.790127   -0.550935
      3          1           0       -0.000000   -0.790127   -0.550935
 ---------------------------------------------------------------------
 Rotational constants (GHZ):         595.2880018         401.6132991         239.8187043
 Leave Link  202 at Tue Jun  8 12:07:53 2021, MaxMem=   134217728 cpu:               0.2 elap:               0.0
 (Enter /APL/ISV/x86_64/gaussian/16/C.01/g16/l601.exe)
 Copying SCF densities to generalized density rwf, IOpCl= 1 IROHF=0.

 **********************************************************************

            Population analysis using the SCF Density.

 **********************************************************************

 Orbital symmetries:
 Alpha Orbitals:
       Occupied  (A1) (A1) (B2) (A1) (B1) (A1)
       Virtual   (B2) (B2) (A1) (A1) (B1) (B2) (A1) (A2) (B1) (A1)
                 (B2) (B2) (A1) (A2) (B1) (A1) (A1) (B2)
 Beta  Orbitals:
       Occupied  (A1) (A1) (B2) (A1) (B1)
       Virtual   (A1) (B2) (B2) (A1) (A1) (B1) (B2) (A1) (A2) (B1)
                 (A1) (B2) (B2) (A1) (A2) (B1) (A1) (A1) (B2)
 The electronic state is 2-A1.
 Alpha  occ. eigenvalues --  -18.79847  -0.64390  -0.15282  -0.06858   0.02951
 Alpha  occ. eigenvalues --    0.22816
 Alpha virt. eigenvalues --    0.34723   0.79123   0.85747   1.20368   1.20933
 Alpha virt. eigenvalues --    1.28273   1.46648   1.55703   1.69876   1.89709
 Alpha virt. eigenvalues --    1.93231   2.25095   2.29363   3.18245   3.18597
 Alpha virt. eigenvalues --    3.33434   3.67990   3.97614
  Beta  occ. eigenvalues --  -18.79025  -0.62185  -0.14168  -0.05136   0.03847
  Beta virt. eigenvalues --    0.31796   0.37985   0.80429   0.88830   1.21735
  Beta virt. eigenvalues --    1.21985   1.29530   1.47957   1.57063   1.71224
  Beta virt. eigenvalues --    1.90959   1.94891   2.26774   2.31644   3.18842
  Beta virt. eigenvalues --    3.20323   3.35117   3.68988   3.99223
          Condensed to atoms (all electrons):
               1          2          3
     1  O    8.831415  -0.252291  -0.252291
     2  H   -0.252291   1.287528   0.301347
     3  H   -0.252291   0.301347   1.287528
          Atomic-Atomic Spin Densities.
               1          2          3
     1  O    1.173177  -0.565742  -0.565742
     2  H   -0.565742   0.689422   0.355473
     3  H   -0.565742   0.355473   0.689422
 Mulliken charges and spin densities:
               1          2
     1  O   -0.326833   0.041693
     2  H   -0.336584   0.479154
     3  H   -0.336584   0.479154
 Sum of Mulliken charges =  -1.00000   1.00000
 Mulliken charges and spin densities with hydrogens summed into heavy atoms:
               1          2
     1  O   -1.000000   1.000000
 Electronic spatial extent (au):  <R**2>=             32.3316
 Charge=             -1.0000 electrons
 Dipole moment (field-independent basis, Debye):
    X=              0.0000    Y=             -0.0000    Z=              0.9217  Tot=              0.9217
 Quadrupole moment (field-independent basis, Debye-Ang):
   XX=            -10.6149   YY=            -11.5113   ZZ=            -11.7188
   XY=             -0.0000   XZ=             -0.0000   YZ=              0.0000
 Traceless Quadrupole moment (field-independent basis, Debye-Ang):
   XX=              0.6667   YY=             -0.2296   ZZ=             -0.4371
   XY=             -0.0000   XZ=             -0.0000   YZ=              0.0000
 Octapole moment (field-independent basis, Debye-Ang**2):
  XXX=              0.0000  YYY=             -0.0000  ZZZ=              6.5556  XYY=              0.0000
  XXY=              0.0000  XXZ=              1.8459  XZZ=              0.0000  YZZ=             -0.0000
  YYZ=              2.8809  XYZ=              0.0000
 Hexadecapole moment (field-independent basis, Debye-Ang**3):
 XXXX=            -11.9039 YYYY=            -29.0247 ZZZZ=            -23.3218 XXXY=             -0.0000
 XXXZ=             -0.0000 YYYX=             -0.0000 YYYZ=              0.0000 ZZZX=             -0.0000
 ZZZY=             -0.0000 XXYY=             -6.6735 XXZZ=             -5.8150 YYZZ=             -8.8283
 XXYZ=             -0.0000 YYXZ=             -0.0000 ZZXY=             -0.0000
 N-N= 8.412949587646D+00 E-N=-2.011355962712D+02  KE= 7.625738499210D+01
 Symmetry A1   KE= 6.857080773721D+01
 Symmetry A2   KE= 6.880262784238D-35
 Symmetry B1   KE= 4.464797020226D+00
 Symmetry B2   KE= 3.221780234658D+00
 Symmetry A1   SP= 1.000000000000D+00
 Symmetry A2   SP= 2.481957448066D-36
 Symmetry B1   SP= 1.230948936531D-15
 Symmetry B2   SP=-2.596909983035D-15
                          Isotropic Fermi Contact Couplings
        Atom                 a.u.       MegaHertz       Gauss      10(-4) cm-1
     1  O(17)              0.93824    -568.75421    -202.94564    -189.71598
     2  H(1)               0.00457      20.40633       7.28148       6.80682
     3  H(1)               0.00457      20.40633       7.28148       6.80682
 --------------------------------------------------------
       Center         ----  Spin Dipole Couplings  ----
                      3XX-RR        3YY-RR        3ZZ-RR
 --------------------------------------------------------
     1   Atom       -0.282292     -0.445996      0.728289
     2   Atom       -0.039243      0.051223     -0.011981
     3   Atom       -0.039243      0.051223     -0.011981
 --------------------------------------------------------
                        XY            XZ            YZ
 --------------------------------------------------------
     1   Atom        0.000000     -0.000000     -0.000000
     2   Atom       -0.000000      0.000000     -0.040120
     3   Atom        0.000000      0.000000      0.040120
 --------------------------------------------------------


 ---------------------------------------------------------------------------------
              Anisotropic Spin Dipole Couplings in Principal Axis System
 ---------------------------------------------------------------------------------

       Atom             a.u.   MegaHertz   Gauss  10(-4) cm-1        Axes

              Baa    -0.4460    32.272    11.515    10.765 -0.0000  1.0000  0.0000
     1 O(17)  Bbb    -0.2823    20.426     7.289     6.814  1.0000  0.0000  0.0000
              Bcc     0.7283   -52.698   -18.804   -17.578 -0.0000 -0.0000  1.0000
 
              Baa    -0.0392   -20.938    -7.471    -6.984  1.0000  0.0000  0.0000
     2 H(1)   Bbb    -0.0315   -16.780    -5.988    -5.597 -0.0000  0.4366  0.8997
              Bcc     0.0707    37.718    13.459    12.581 -0.0000  0.8997 -0.4366
 
              Baa    -0.0392   -20.938    -7.471    -6.984  1.0000 -0.0000  0.0000
     3 H(1)   Bbb    -0.0315   -16.780    -5.988    -5.597 -0.0000 -0.4366  0.8997
              Bcc     0.0707    37.718    13.459    12.581  0.0000  0.8997  0.4366
 

 ---------------------------------------------------------------------------------

 No NMR shielding tensors so no spin-rotation constants.
 Leave Link  601 at Tue Jun  8 12:07:53 2021, MaxMem=   134217728 cpu:               2.1 elap:               0.2
 (Enter /APL/ISV/x86_64/gaussian/16/C.01/g16/l9999.exe)
 Unable to Open any file for archive entry.
 1\1\GINC-LEMON\FOpt\UB3LYP\CC-pVDZ\H2O1(1-,2)\YAGI\08-Jun-2021\0\\#P B
 3LYP/cc-pVDZ opt\\B3LYP/cc-pVDZ water -1\\-1,2\O,0.175358594,0.1753585
 94,0.\H,1.221024972,0.103616434,0.\H,0.103616434,1.221024972,0.\\Versi
 on=ES64L-G16RevC.01\State=2-A1\HF=-76.2832346\S2=0.751298\S2-1=0.\S2A=
 0.750001\RMSD=2.738e-09\RMSF=3.968e-05\Dipole=-0.2564261,-0.2564261,0.
 \Quadrupole=-0.2478549,-0.2478549,0.4957099,-0.0771175,0.,0.\PG=C02V [
 C2(O1),SGV(H2)]\\@
 The archive entry for this job was punched.


 NATURE WILL TELL YOU A DIRECT LIE IF SHE CAN.

                                -- CHARLES DARWIN
 Job cpu time:       0 days  0 hours  1 minutes 36.1 seconds.
 Elapsed time:       0 days  0 hours  0 minutes  8.2 seconds.
 File lengths (MBytes):  RWF=      6 Int=      0 D2E=      0 Chk=      1 Scr=      1
 Normal termination of Gaussian 16 at Tue Jun  8 12:07:53 2021.

real	0m8.565s
user	1m30.458s
sys	0m5.630s
