B3LYP/cc-pVDZ water -1                                                  
FOpt      UB3LYP                                                      CC-pVDZ             
Number of atoms                            I                3
Info1-9                                    I   N=           9
          10          10           0           0           0         110
           2          18        -502
Full Title                                 C   N=           2
B3LYP/cc-pVDZ water -1  
Route                                      C   N=           3
#P B3LYP/cc-pVDZ opt geom=checkpoint
Charge                                     I               -1
Multiplicity                               I                2
Number of electrons                        I               11
Number of alpha electrons                  I                6
Number of beta electrons                   I                5
Number of basis functions                  I               24
Number of independent functions            I               24
Number of point charges in /Mol/           I                0
Number of translation vectors              I                0
Atomic numbers                             I   N=           3
           8           1           1
Nuclear charges                            R   N=           3
  8.00000000E+00  1.00000000E+00  1.00000000E+00
Current cartesian coordinates              R   N=           9
  1.54074396E-32 -2.14073214E-17  2.60356723E-01 -2.95822839E-31  1.49258942E+00
 -1.04142689E+00 -1.82789485E-16 -1.49258942E+00 -1.04142689E+00
Number of symbols in /Mol/                 I                0
Int Atom Types                             I   N=           3
           0           0           0
Force Field                                I                0
Atom Types                                 C   N=           3
                                    
MM charges                                 R   N=           3
  0.00000000E+00  0.00000000E+00  0.00000000E+00
Integer atomic weights                     I   N=           3
          16           1           1
Real atomic weights                        R   N=           3
  1.59949146E+01  1.00782504E+00  1.00782504E+00
Atom fragment info                         I   N=           3
           0           0           0
Atom residue num                           I   N=           3
           0           0           0
Nuclear spins                              I   N=           3
           0           1           1
Nuclear ZEff                               R   N=           3
 -5.60000000E+00 -1.00000000E+00 -1.00000000E+00
Nuclear ZNuc                               R   N=           3
  8.00000000E+00  1.00000000E+00  1.00000000E+00
Nuclear QMom                               R   N=           3
  0.00000000E+00  0.00000000E+00  0.00000000E+00
Nuclear GFac                               R   N=           3
  0.00000000E+00  2.79284600E+00  2.79284600E+00
MicOpt                                     I   N=           3
          -1          -1          -1
Number of residues                         I                0
Number of secondary structures             I                0
Redundant internal dimensions              I   N=           4
           3           2           1           0
Redundant internal coordinate indices      I   N=          12
           1           2           0           0           1           3
           0           0           2           1           3           0
Redundant internal coordinates             R   N=           3
  1.98052108E+00  1.98052108E+00  1.70714898E+00
ZRed-IntVec                                I   N=           3
           0           0           0
ZRed-FPVec                                 R   N=           3
  0.00000000E+00  0.00000000E+00  0.00000000E+00
ZRed-Constraint1                           R   N=           3
  1.83073326E+00  1.83073326E+00  1.79290738E+00
ZRed-Constraint2                           R   N=           3
  2.83458919E+00  2.83458919E+00  1.57079633E+00
SymInf integers                            I   N=          26
           2           4           1           1           1          -1
          -1           1          -1           1           1           1
          -1           1           0           0           0           0
           0           0           0           0           0           0
           0           0
RotTr to input orientation                 R   N=          12
 -1.73191211E-16  2.59786817E-16 -1.00000000E+00  7.07106781E-01 -7.07106781E-01
 -3.06161700E-16 -7.07106781E-01 -7.07106781E-01 -6.12323400E-17  5.15296386E-01
  5.15296386E-01  2.56753685E-16
Number of contracted shells                I               12
Number of primitive shells                 I               30
Pure/Cartesian d shells                    I                0
Pure/Cartesian f shells                    I                0
Highest angular momentum                   I                2
Largest degree of contraction              I                7
Shell types                                I   N=          12
           0           0           0           1           1          -2
           0           0           1           0           0           1
Number of primitives per shell             I   N=          12
           7           7           1           3           1           1
           3           1           1           3           1           1
Shell to atom map                          I   N=          12
           1           1           1           1           1           1
           2           2           2           3           3           3
Primitive exponents                        R   N=          30
  1.17200000E+04  1.75900000E+03  4.00800000E+02  1.13700000E+02  3.70300000E+01
  1.32700000E+01  5.02500000E+00  1.17200000E+04  4.00800000E+02  1.13700000E+02
  3.70300000E+01  1.32700000E+01  5.02500000E+00  1.01300000E+00  3.02300000E-01
  1.77000000E+01  3.85400000E+00  1.04600000E+00  2.75300000E-01  1.18500000E+00
  1.30100000E+01  1.96200000E+00  4.44600000E-01  1.22000000E-01  7.27000000E-01
  1.30100000E+01  1.96200000E+00  4.44600000E-01  1.22000000E-01  7.27000000E-01
Contraction coefficients                   R   N=          30
  7.11864434E-04  5.48520199E-03  2.79099296E-02  1.05133208E-01  2.84002490E-01
  4.51673946E-01  2.73208126E-01  7.69030046E-06  3.13484579E-04 -2.96614853E-03
 -1.08753543E-02 -1.20753817E-01 -1.06275264E-01  1.09597548E+00  1.00000000E+00
  6.26791663E-02  3.33536566E-01  7.41239642E-01  1.00000000E+00  1.00000000E+00
  3.34987264E-02  2.34800801E-01  8.13682958E-01  1.00000000E+00  1.00000000E+00
  3.34987264E-02  2.34800801E-01  8.13682958E-01  1.00000000E+00  1.00000000E+00
Coordinates of each shell                  R   N=          36
  2.77333912E-32 -1.98974199E-17  2.60356723E-01  2.77333912E-32 -1.98974199E-17
  2.60356723E-01  2.77333912E-32 -1.98974199E-17  2.60356723E-01  2.77333912E-32
 -1.98974199E-17  2.60356723E-01  2.77333912E-32 -1.98974199E-17  2.60356723E-01
  2.77333912E-32 -1.98974199E-17  2.60356723E-01 -2.95822839E-31  1.49258942E+00
 -1.04142689E+00 -2.95822839E-31  1.49258942E+00 -1.04142689E+00 -2.95822839E-31
  1.49258942E+00 -1.04142689E+00 -1.82789485E-16 -1.49258942E+00 -1.04142689E+00
 -1.82789485E-16 -1.49258942E+00 -1.04142689E+00 -1.82789485E-16 -1.49258942E+00
 -1.04142689E+00
Num ILSW                                   I              100
ILSW                                       I   N=         100
           1           0           0           1           2           0
           0           0           0           0         402          -1
           5           0           0           0           2           0
           0           0           0           0           1           0
           1           0           0           0           0           0
           0           0      100000           0          -1           0
           0           0           0           0           0           0
           0           0           0           1           0           0
           0 -2000000000           1           0           0           0
           0           0           4          52           0           0
           0           0           5           0           0           0
           0           0           0           3           0           1
           0           0           0           0           0           0
           0           0           0           0           0           0
           0           0           0           0           0           0
           0           0           0           0           0           0
           0           0           0           0
Num RLSW                                   I               52
RLSW                                       R   N=          52
  8.00000000E-01  7.20000000E-01  1.00000000E+00  8.10000000E-01  2.00000000E-01
  0.00000000E+00  0.00000000E+00  1.00000000E+00  0.00000000E+00  0.00000000E+00
  0.00000000E+00  0.00000000E+00  1.00000000E+00  0.00000000E+00  0.00000000E+00
  0.00000000E+00  0.00000000E+00  1.00000000E+00  0.00000000E+00  0.00000000E+00
  0.00000000E+00  0.00000000E+00  1.00000000E+00  0.00000000E+00  0.00000000E+00
  0.00000000E+00  0.00000000E+00  1.00000000E+00  0.00000000E+00  0.00000000E+00
  0.00000000E+00  0.00000000E+00  1.00000000E+00  0.00000000E+00  0.00000000E+00
  0.00000000E+00  0.00000000E+00  0.00000000E+00  1.00000000E+00  1.00000000E+00
  0.00000000E+00  1.00000000E+00  0.00000000E+00  0.00000000E+00  0.00000000E+00
  0.00000000E+00  0.00000000E+00  0.00000000E+00  0.00000000E+00  0.00000000E+00
  0.00000000E+00  0.00000000E+00
MxBond                                     I                2
NBond                                      I   N=           3
           2           1           1
IBond                                      I   N=           6
           2           3           1           0           1           0
RBond                                      R   N=           6
  1.00000000E-01  1.00000000E-01  1.00000000E-01  0.00000000E+00  1.00000000E-01
  0.00000000E+00
Virial Ratio                               R      2.000336531684794E+00
SCF Energy                                 R     -7.628323458145299E+01
Total Energy                               R     -7.628323458145299E+01
S**2                                       R      7.512977151154789E-01
S**2 after annihilation                    R      7.500008282660051E-01
RMS Force                                  R      5.011594048447387E-05
RMS Density                                R      3.517895468852925E-09
Job Status                                 I                1
Nuclear derivative order                   I                1
External E-field                           R   N=          35
  0.00000000E+00  0.00000000E+00  0.00000000E+00  0.00000000E+00  0.00000000E+00
  0.00000000E+00  0.00000000E+00  0.00000000E+00  0.00000000E+00  0.00000000E+00
  0.00000000E+00  0.00000000E+00  0.00000000E+00  0.00000000E+00  0.00000000E+00
  0.00000000E+00  0.00000000E+00  0.00000000E+00  0.00000000E+00  0.00000000E+00
  0.00000000E+00  0.00000000E+00  0.00000000E+00  0.00000000E+00  0.00000000E+00
  0.00000000E+00  0.00000000E+00  0.00000000E+00  0.00000000E+00  0.00000000E+00
  0.00000000E+00  0.00000000E+00  0.00000000E+00  0.00000000E+00  0.00000000E+00
IOpCl                                      I                1
IROHF                                      I                0
Alpha Orbital Energies                     R   N=          24
 -1.87984762E+01 -6.43950768E-01 -1.52780357E-01 -6.86562161E-02  2.94974254E-02
  2.28171801E-01  3.47250728E-01  7.91197079E-01  8.57623937E-01  1.20373758E+00
  1.20932325E+00  1.28275296E+00  1.46611732E+00  1.55717180E+00  1.69858256E+00
  1.89701070E+00  1.93256564E+00  2.25114664E+00  2.29380691E+00  3.18239800E+00
  3.18616043E+00  3.33434106E+00  3.67993219E+00  3.97633369E+00
Beta Orbital Energies                      R   N=          24
 -1.87902561E+01 -6.21902907E-01 -1.41649656E-01 -5.14459905E-02  3.84494837E-02
  3.17975849E-01  3.79872929E-01  8.04248077E-01  8.88451319E-01  1.21740251E+00
  1.21984101E+00  1.29531319E+00  1.47920105E+00  1.57076615E+00  1.71206065E+00
  1.90950217E+00  1.94915971E+00  2.26793070E+00  2.31662026E+00  3.18836696E+00
  3.20342314E+00  3.35115291E+00  3.68992096E+00  3.99241359E+00
Alpha MO coefficients                      R   N=         576
  9.96437088E-01  2.15185700E-02 -8.03060959E-03  0.00000000E+00  0.00000000E+00
 -1.22267046E-03  0.00000000E+00  0.00000000E+00  1.20969464E-03  4.11362227E-05
  0.00000000E+00  0.00000000E+00 -8.72164817E-05  0.00000000E+00  3.70469826E-04
  1.02986996E-03  0.00000000E+00  3.48229310E-04 -4.34544569E-04  3.70469826E-04
  1.02986996E-03  0.00000000E+00 -3.48229310E-04 -4.34544569E-04 -2.08956904E-01
  4.53438079E-01  4.05218614E-01  0.00000000E+00  0.00000000E+00 -1.01830861E-01
  0.00000000E+00  0.00000000E+00  9.98264609E-03  3.08249815E-03  0.00000000E+00
  0.00000000E+00 -3.63192046E-03  0.00000000E+00  1.64811862E-01  2.54966105E-02
  0.00000000E+00 -2.73305192E-02  1.85568405E-02  1.64811862E-01  2.54966105E-02
  0.00000000E+00  2.73305192E-02  1.85568405E-02  0.00000000E+00  0.00000000E+00
  0.00000000E+00  0.00000000E+00  4.80603577E-01  0.00000000E+00  0.00000000E+00
  2.21772931E-01  0.00000000E+00  0.00000000E+00  0.00000000E+00 -1.73814658E-02
  0.00000000E+00  0.00000000E+00  2.89402264E-01  2.06491376E-01  0.00000000E+00
 -8.99405460E-03  2.65250266E-02 -2.89402264E-01 -2.06491376E-01  0.00000000E+00
 -8.99405460E-03 -2.65250266E-02 -7.82042275E-02  1.36612782E-01  3.86390067E-01
  0.00000000E+00  0.00000000E+00  5.26375260E-01  0.00000000E+00  0.00000000E+00
  3.54267116E-01 -1.29166342E-02  0.00000000E+00  0.00000000E+00  1.53416576E-03
  0.00000000E+00 -2.04810326E-01 -8.48113201E-02  0.00000000E+00  1.93415179E-02
  6.63263909E-03 -2.04810326E-01 -8.48113201E-02  0.00000000E+00 -1.93415179E-02
  6.63263909E-03  0.00000000E+00  0.00000000E+00  0.00000000E+00  6.23839320E-01
  0.00000000E+00  0.00000000E+00  5.11284862E-01  0.00000000E+00  0.00000000E+00
  0.00000000E+00 -1.37989034E-02  0.00000000E+00  0.00000000E+00  0.00000000E+00
  0.00000000E+00  0.00000000E+00  2.60035233E-02  0.00000000E+00  0.00000000E+00
  0.00000000E+00  0.00000000E+00  2.60035233E-02  0.00000000E+00  0.00000000E+00
 -8.41342475E-02  1.01707431E-01  8.50070841E-01  0.00000000E+00  0.00000000E+00
 -2.74677945E-01  0.00000000E+00  0.00000000E+00 -3.81282348E-01  9.03007869E-03
  0.00000000E+00  0.00000000E+00 -5.01835114E-03  0.00000000E+00 -9.58621610E-02
 -7.50273751E-01  0.00000000E+00  3.90842816E-03 -1.02451020E-02 -9.58621610E-02
 -7.50273751E-01  0.00000000E+00 -3.90842816E-03 -1.02451020E-02  0.00000000E+00
  0.00000000E+00  0.00000000E+00  0.00000000E+00 -3.80868689E-01  0.00000000E+00
  0.00000000E+00 -6.34749147E-01  0.00000000E+00  0.00000000E+00  0.00000000E+00
  1.24543070E-02  0.00000000E+00  0.00000000E+00  5.94299882E-02  1.25152048E+00
  0.00000000E+00 -7.35033027E-03  6.39074600E-03 -5.94299882E-02 -1.25152048E+00
  0.00000000E+00 -7.35033027E-03 -6.39074600E-03  0.00000000E+00  0.00000000E+00
  0.00000000E+00  0.00000000E+00 -2.82273254E-01  0.00000000E+00  0.00000000E+00
 -2.45597822E-01  0.00000000E+00  0.00000000E+00  0.00000000E+00 -9.44850827E-02
  0.00000000E+00  0.00000000E+00  9.39807874E-01 -8.92721229E-01  0.00000000E+00
  5.37257779E-02 -9.92176320E-02 -9.39807874E-01  8.92721229E-01  0.00000000E+00
  5.37257779E-02  9.92176320E-02  3.20821826E-02 -2.72890402E-01  4.33484982E-01
  0.00000000E+00  0.00000000E+00  4.25365014E-01  0.00000000E+00  0.00000000E+00
 -1.03386520E-01  1.21760420E-02  0.00000000E+00  0.00000000E+00 -7.81691499E-02
  0.00000000E+00  8.08497155E-01 -6.42304449E-01  0.00000000E+00  2.08548583E-01
 -8.12065464E-02  8.08497155E-01 -6.42304449E-01  0.00000000E+00 -2.08548583E-01
 -8.12065464E-02  6.01318073E-02 -2.70136400E-01 -3.30475230E-01  0.00000000E+00
  0.00000000E+00 -7.46403776E-01  0.00000000E+00  0.00000000E+00  1.21615499E+00
 -1.36553472E-02  0.00000000E+00  0.00000000E+00 -2.77803046E-02  0.00000000E+00
  5.25225276E-01  5.55793745E-03  0.00000000E+00 -9.23551570E-03  2.33219032E-01
  5.25225276E-01  5.55793745E-03  0.00000000E+00  9.23551570E-03  2.33219032E-01
  0.00000000E+00  0.00000000E+00  0.00000000E+00 -9.66330326E-01  0.00000000E+00
  0.00000000E+00  9.66456173E-01  0.00000000E+00  0.00000000E+00  0.00000000E+00
 -7.71458844E-04  0.00000000E+00  0.00000000E+00  0.00000000E+00  0.00000000E+00
  0.00000000E+00  7.44842752E-02  0.00000000E+00  0.00000000E+00  0.00000000E+00
  0.00000000E+00  7.44842752E-02  0.00000000E+00  0.00000000E+00  0.00000000E+00
  0.00000000E+00  0.00000000E+00  0.00000000E+00 -8.12434334E-01  0.00000000E+00
  0.00000000E+00  1.64657800E+00  0.00000000E+00  0.00000000E+00  0.00000000E+00
 -6.18380854E-03  0.00000000E+00  0.00000000E+00 -3.15263438E-01 -6.96556065E-01
  0.00000000E+00  2.40945299E-01 -1.38618485E-01  3.15263438E-01  6.96556065E-01
  0.00000000E+00  2.40945299E-01  1.38618485E-01  3.67806732E-02 -4.44842443E-01
  3.01903689E-01  0.00000000E+00  0.00000000E+00 -1.41981265E-01  0.00000000E+00
  0.00000000E+00  7.07189141E-01  1.35694966E-01  0.00000000E+00  0.00000000E+00
  4.03368626E-02  0.00000000E+00  3.26948158E-01 -1.53009602E-01  0.00000000E+00
 -4.39674123E-01 -4.58201472E-01  3.26948158E-01 -1.53009602E-01  0.00000000E+00
  4.39674123E-01 -4.58201472E-01  0.00000000E+00  0.00000000E+00  0.00000000E+00
  0.00000000E+00  0.00000000E+00  0.00000000E+00  0.00000000E+00  0.00000000E+00
  0.00000000E+00  0.00000000E+00  0.00000000E+00  0.00000000E+00  0.00000000E+00
  1.45664012E-01  0.00000000E+00  0.00000000E+00  6.84594831E-01  0.00000000E+00
  0.00000000E+00  0.00000000E+00  0.00000000E+00 -6.84594831E-01  0.00000000E+00
  0.00000000E+00  0.00000000E+00  0.00000000E+00  0.00000000E+00  1.18361149E-01
  0.00000000E+00  0.00000000E+00 -6.49880078E-01  0.00000000E+00  0.00000000E+00
  0.00000000E+00 -1.72126735E-01  0.00000000E+00  0.00000000E+00  0.00000000E+00
  0.00000000E+00  0.00000000E+00  7.38472806E-01  0.00000000E+00  0.00000000E+00
  0.00000000E+00  0.00000000E+00  7.38472806E-01  0.00000000E+00  0.00000000E+00
  8.60683942E-03 -1.70198530E+00  2.74590257E+00  0.00000000E+00  0.00000000E+00
  8.49328856E-02  0.00000000E+00  0.00000000E+00 -9.84501248E-01 -1.18480355E-01
  0.00000000E+00  0.00000000E+00  1.13774935E-01  0.00000000E+00 -6.99674496E-01
 -3.35830905E-01  0.00000000E+00  2.64294823E-01 -5.36483512E-03 -6.99674496E-01
 -3.35830905E-01  0.00000000E+00 -2.64294823E-01 -5.36483512E-03  0.00000000E+00
  0.00000000E+00  0.00000000E+00  0.00000000E+00  2.32649251E-02  0.00000000E+00
  0.00000000E+00  7.68035154E-01  0.00000000E+00  0.00000000E+00  0.00000000E+00
  3.90834517E-02  0.00000000E+00  0.00000000E+00 -2.89169556E-01 -1.02900920E-01
  0.00000000E+00 -3.82162829E-01 -7.28585160E-01  2.89169556E-01  1.02900920E-01
  0.00000000E+00 -3.82162829E-01  7.28585160E-01  0.00000000E+00  0.00000000E+00
  0.00000000E+00  0.00000000E+00  6.36787569E-01  0.00000000E+00  0.00000000E+00
  1.01358559E-01  0.00000000E+00  0.00000000E+00  0.00000000E+00  1.19396020E-01
  0.00000000E+00  0.00000000E+00 -1.22221115E-01 -3.79034916E-01  0.00000000E+00
  7.31327886E-01 -4.48720344E-01  1.22221115E-01  3.79034916E-01  0.00000000E+00
  7.31327886E-01  4.48720344E-01 -7.18019931E-02  2.57258205E-01  1.13097634E+00
  0.00000000E+00  0.00000000E+00 -5.76935248E-01  0.00000000E+00  0.00000000E+00
 -3.14646815E-01 -4.96104185E-02  0.00000000E+00  0.00000000E+00  1.97681505E-01
  0.00000000E+00 -4.23043290E-01 -2.32054377E-01  0.00000000E+00  6.99337061E-01
 -5.95999932E-01 -4.23043290E-01 -2.32054377E-01  0.00000000E+00 -6.99337061E-01
 -5.95999932E-01  0.00000000E+00  0.00000000E+00  0.00000000E+00  0.00000000E+00
  0.00000000E+00  0.00000000E+00  0.00000000E+00  0.00000000E+00  0.00000000E+00
  0.00000000E+00  0.00000000E+00  0.00000000E+00  0.00000000E+00  1.03232434E+00
  0.00000000E+00  0.00000000E+00 -3.11374788E-01  0.00000000E+00  0.00000000E+00
  0.00000000E+00  0.00000000E+00  3.11374788E-01  0.00000000E+00  0.00000000E+00
  0.00000000E+00  0.00000000E+00  0.00000000E+00  4.31704871E-02  0.00000000E+00
  0.00000000E+00 -2.64147999E-01  0.00000000E+00  0.00000000E+00  0.00000000E+00
  1.02416658E+00  0.00000000E+00  0.00000000E+00  0.00000000E+00  0.00000000E+00
  0.00000000E+00  3.49386477E-01  0.00000000E+00  0.00000000E+00  0.00000000E+00
  0.00000000E+00  3.49386477E-01  0.00000000E+00  0.00000000E+00  6.57342956E-04
 -7.66591364E-02  6.40021661E-02  0.00000000E+00  0.00000000E+00  7.65776403E-02
  0.00000000E+00  0.00000000E+00 -2.74605355E-01  9.57080451E-01  0.00000000E+00
  0.00000000E+00  4.66088244E-01  0.00000000E+00 -6.51703645E-02  1.47378790E-02
  0.00000000E+00  2.13320988E-01  3.28220151E-01 -6.51703645E-02  1.47378790E-02
  0.00000000E+00 -2.13320988E-01  3.28220151E-01 -6.74363954E-02 -4.73245983E-01
  2.07356923E+00  0.00000000E+00  0.00000000E+00 -2.42716660E-01  0.00000000E+00
  0.00000000E+00 -1.00339615E+00  4.72042375E-01  0.00000000E+00  0.00000000E+00
 -1.01603916E+00  0.00000000E+00 -1.00916348E+00 -1.92102990E-01  0.00000000E+00
  6.02152223E-01 -4.11688821E-01 -1.00916348E+00 -1.92102990E-01  0.00000000E+00
 -6.02152223E-01 -4.11688821E-01  0.00000000E+00  0.00000000E+00  0.00000000E+00
  0.00000000E+00 -2.77193025E-01  0.00000000E+00  0.00000000E+00 -9.87517130E-01
  0.00000000E+00  0.00000000E+00  0.00000000E+00  1.28363778E+00  0.00000000E+00
  0.00000000E+00  8.03665146E-01  2.79521127E-01  0.00000000E+00 -5.20160875E-01
  5.15054535E-01 -8.03665146E-01 -2.79521127E-01  0.00000000E+00 -5.20160875E-01
 -5.15054535E-01
Beta MO coefficients                       R   N=         576
  9.96469294E-01  2.13440368E-02 -8.02116184E-03  0.00000000E+00  0.00000000E+00
 -1.00436576E-03  0.00000000E+00  0.00000000E+00  1.18380229E-03 -8.11134010E-05
  0.00000000E+00  0.00000000E+00 -9.37211381E-05  0.00000000E+00  4.02918392E-04
  1.02561335E-03  0.00000000E+00  3.07115039E-04 -4.24979078E-04  4.02918392E-04
  1.02561335E-03  0.00000000E+00 -3.07115039E-04 -4.24979078E-04 -2.09179537E-01
  4.44450180E-01  4.16032902E-01  0.00000000E+00  0.00000000E+00 -7.30547874E-02
  0.00000000E+00  0.00000000E+00  1.58566993E-02 -1.04282380E-03  0.00000000E+00
  0.00000000E+00 -4.37042540E-03  0.00000000E+00  1.65970046E-01  2.61907880E-02
  0.00000000E+00 -2.84284370E-02  1.95697363E-02  1.65970046E-01  2.61907880E-02
  0.00000000E+00  2.84284370E-02  1.95697363E-02  0.00000000E+00  0.00000000E+00
  0.00000000E+00  0.00000000E+00  4.89534193E-01  0.00000000E+00  0.00000000E+00
  2.38042888E-01  0.00000000E+00  0.00000000E+00  0.00000000E+00 -1.46414919E-02
  0.00000000E+00  0.00000000E+00  2.87820431E-01  1.73506805E-01  0.00000000E+00
 -1.28176295E-02  2.93215209E-02 -2.87820431E-01 -1.73506805E-01  0.00000000E+00
 -1.28176295E-02 -2.93215209E-02 -7.44549826E-02  1.39656549E-01  3.72006639E-01
  0.00000000E+00  0.00000000E+00  5.16699553E-01  0.00000000E+00  0.00000000E+00
  3.54039688E-01 -1.09030881E-02  0.00000000E+00  0.00000000E+00  1.48102175E-03
  0.00000000E+00 -2.17758067E-01 -8.53038055E-02  0.00000000E+00  2.29684061E-02
  4.25104163E-03 -2.17758067E-01 -8.53038055E-02  0.00000000E+00 -2.29684061E-02
  4.25104163E-03  0.00000000E+00  0.00000000E+00  0.00000000E+00  6.19880704E-01
  0.00000000E+00  0.00000000E+00  5.15957764E-01  0.00000000E+00  0.00000000E+00
  0.00000000E+00 -1.03352843E-02  0.00000000E+00  0.00000000E+00  0.00000000E+00
  0.00000000E+00  0.00000000E+00  2.54025741E-02  0.00000000E+00  0.00000000E+00
  0.00000000E+00  0.00000000E+00  2.54025741E-02  0.00000000E+00  0.00000000E+00
 -8.57970385E-02  9.74758559E-02  8.74867911E-01  0.00000000E+00  0.00000000E+00
 -2.59789176E-01  0.00000000E+00  0.00000000E+00 -4.03619520E-01  6.35827600E-03
  0.00000000E+00  0.00000000E+00 -7.22114206E-03  0.00000000E+00 -7.71803893E-02
 -7.67891020E-01  0.00000000E+00  1.06834852E-02 -1.47785089E-02 -7.71803893E-02
 -7.67891020E-01  0.00000000E+00 -1.06834852E-02 -1.47785089E-02  0.00000000E+00
  0.00000000E+00  0.00000000E+00  0.00000000E+00 -3.70815990E-01  0.00000000E+00
  0.00000000E+00 -6.31778484E-01  0.00000000E+00  0.00000000E+00  0.00000000E+00
  9.64873499E-03  0.00000000E+00  0.00000000E+00  7.39156420E-02  1.25532953E+00
  0.00000000E+00 -1.17800672E-02  9.66273699E-03 -7.39156420E-02 -1.25532953E+00
  0.00000000E+00 -1.17800672E-02 -9.66273699E-03  0.00000000E+00  0.00000000E+00
  0.00000000E+00  0.00000000E+00 -2.79501562E-01  0.00000000E+00  0.00000000E+00
 -2.53366038E-01  0.00000000E+00  0.00000000E+00  0.00000000E+00 -9.51601102E-02
  0.00000000E+00  0.00000000E+00  9.43538118E-01 -8.92217869E-01  0.00000000E+00
  4.74184905E-02 -9.33901069E-02 -9.43538118E-01  8.92217869E-01  0.00000000E+00
  4.74184905E-02  9.33901069E-02  3.68215049E-02 -2.66615984E-01  3.72103009E-01
  0.00000000E+00  0.00000000E+00  4.27339161E-01  0.00000000E+00  0.00000000E+00
 -5.81944905E-02  1.53405072E-02  0.00000000E+00  0.00000000E+00 -7.92545890E-02
  0.00000000E+00  8.24132768E-01 -6.17817881E-01  0.00000000E+00  2.04040369E-01
 -7.52475065E-02  8.24132768E-01 -6.17817881E-01  0.00000000E+00 -2.04040369E-01
 -7.52475065E-02  5.84031147E-02 -2.74835961E-01 -3.16293831E-01  0.00000000E+00
  0.00000000E+00 -7.55313201E-01  0.00000000E+00  0.00000000E+00  1.21360160E+00
 -1.69761571E-02  0.00000000E+00  0.00000000E+00 -2.68621140E-02  0.00000000E+00
  5.12964859E-01  6.15734240E-03  0.00000000E+00 -1.75359701E-02  2.34148973E-01
  5.12964859E-01  6.15734240E-03  0.00000000E+00  1.75359701E-02  2.34148973E-01
  0.00000000E+00  0.00000000E+00  0.00000000E+00  9.69083344E-01  0.00000000E+00
  0.00000000E+00 -9.66478182E-01  0.00000000E+00  0.00000000E+00  0.00000000E+00
  5.39693435E-03  0.00000000E+00  0.00000000E+00  0.00000000E+00  0.00000000E+00
  0.00000000E+00 -7.18411115E-02  0.00000000E+00  0.00000000E+00  0.00000000E+00
  0.00000000E+00 -7.18411115E-02  0.00000000E+00  0.00000000E+00  0.00000000E+00
  0.00000000E+00  0.00000000E+00  0.00000000E+00 -8.16950390E-01  0.00000000E+00
  0.00000000E+00  1.64787258E+00  0.00000000E+00  0.00000000E+00  0.00000000E+00
 -9.58951991E-03  0.00000000E+00  0.00000000E+00 -3.11587620E-01 -6.98803212E-01
  0.00000000E+00  2.37528162E-01 -1.39965094E-01  3.11587620E-01  6.98803212E-01
  0.00000000E+00  2.37528162E-01  1.39965094E-01  3.61993481E-02 -4.44991005E-01
  3.08606557E-01  0.00000000E+00  0.00000000E+00 -1.38005788E-01  0.00000000E+00
  0.00000000E+00  7.00030240E-01  1.36964394E-01  0.00000000E+00  0.00000000E+00
  4.27031545E-02  0.00000000E+00  3.22623200E-01 -1.54687941E-01  0.00000000E+00
 -4.39136230E-01 -4.58543972E-01  3.22623200E-01 -1.54687941E-01  0.00000000E+00
  4.39136230E-01 -4.58543972E-01  0.00000000E+00  0.00000000E+00  0.00000000E+00
  0.00000000E+00  0.00000000E+00  0.00000000E+00  0.00000000E+00  0.00000000E+00
  0.00000000E+00  0.00000000E+00  0.00000000E+00  0.00000000E+00  0.00000000E+00
  1.48958586E-01  0.00000000E+00  0.00000000E+00  6.83597393E-01  0.00000000E+00
  0.00000000E+00  0.00000000E+00  0.00000000E+00 -6.83597393E-01  0.00000000E+00
  0.00000000E+00  0.00000000E+00  0.00000000E+00  0.00000000E+00  1.18788367E-01
  0.00000000E+00  0.00000000E+00 -6.47128026E-01  0.00000000E+00  0.00000000E+00
  0.00000000E+00 -1.73209891E-01  0.00000000E+00  0.00000000E+00  0.00000000E+00
  0.00000000E+00  0.00000000E+00  7.38268389E-01  0.00000000E+00  0.00000000E+00
  0.00000000E+00  0.00000000E+00  7.38268389E-01  0.00000000E+00  0.00000000E+00
  7.69327892E-03 -1.69993934E+00  2.77916869E+00  0.00000000E+00  0.00000000E+00
  8.48923441E-02  0.00000000E+00  0.00000000E+00 -1.00019766E+00 -1.15792816E-01
  0.00000000E+00  0.00000000E+00  1.15905716E-01  0.00000000E+00 -7.08519945E-01
 -3.46033337E-01  0.00000000E+00  2.85349759E-01 -2.04544021E-02 -7.08519945E-01
 -3.46033337E-01  0.00000000E+00 -2.85349759E-01 -2.04544021E-02  0.00000000E+00
  0.00000000E+00  0.00000000E+00  0.00000000E+00  2.49176143E-02  0.00000000E+00
  0.00000000E+00  7.61731424E-01  0.00000000E+00  0.00000000E+00  0.00000000E+00
  4.01759008E-02  0.00000000E+00  0.00000000E+00 -2.85769575E-01 -1.02124053E-01
  0.00000000E+00 -3.82736884E-01 -7.28205774E-01  2.85769575E-01  1.02124053E-01
  0.00000000E+00 -3.82736884E-01  7.28205774E-01  0.00000000E+00  0.00000000E+00
  0.00000000E+00  0.00000000E+00  6.29317338E-01  0.00000000E+00  0.00000000E+00
  1.01586985E-01  0.00000000E+00  0.00000000E+00  0.00000000E+00  1.21487626E-01
  0.00000000E+00  0.00000000E+00 -1.13124519E-01 -3.79927712E-01  0.00000000E+00
  7.31874724E-01 -4.48361982E-01  1.13124519E-01  3.79927712E-01  0.00000000E+00
  7.31874724E-01  4.48361982E-01 -7.18366101E-02  2.97609964E-01  1.05755817E+00
  0.00000000E+00  0.00000000E+00 -5.83197084E-01  0.00000000E+00  0.00000000E+00
 -2.84398232E-01 -5.03337553E-02  0.00000000E+00  0.00000000E+00  1.99335068E-01
  0.00000000E+00 -3.95714884E-01 -2.24017082E-01  0.00000000E+00  6.90375883E-01
 -5.92893883E-01 -3.95714884E-01 -2.24017082E-01  0.00000000E+00 -6.90375883E-01
 -5.92893883E-01  0.00000000E+00  0.00000000E+00  0.00000000E+00  0.00000000E+00
  0.00000000E+00  0.00000000E+00  0.00000000E+00  0.00000000E+00  0.00000000E+00
  0.00000000E+00  0.00000000E+00  0.00000000E+00  0.00000000E+00  1.03185410E+00
  0.00000000E+00  0.00000000E+00 -3.13558520E-01  0.00000000E+00  0.00000000E+00
  0.00000000E+00  0.00000000E+00  3.13558520E-01  0.00000000E+00  0.00000000E+00
  0.00000000E+00  0.00000000E+00  0.00000000E+00  3.68450417E-02  0.00000000E+00
  0.00000000E+00 -2.61726677E-01  0.00000000E+00  0.00000000E+00  0.00000000E+00
  1.02401084E+00  0.00000000E+00  0.00000000E+00  0.00000000E+00  0.00000000E+00