 Entering Gaussian System, Link 0=g16
 Initial command:
 /APL/ISV/x86_64/gaussian/16/C.01/g16/l1.exe "/scr/yagi/water_anion.10008/Gau-10789.inp" -scrdir="/scr/yagi/water_anion.10008/"
 Entering Link 1 = /APL/ISV/x86_64/gaussian/16/C.01/g16/l1.exe PID=     10790.
  
 Copyright (c) 1988-2019, Gaussian, Inc.  All Rights Reserved.
  
 This is part of the Gaussian(R) 16 program.  It is based on
 the Gaussian(R) 09 system (copyright 2009, Gaussian, Inc.),
 the Gaussian(R) 03 system (copyright 2003, Gaussian, Inc.),
 the Gaussian(R) 98 system (copyright 1998, Gaussian, Inc.),
 the Gaussian(R) 94 system (copyright 1995, Gaussian, Inc.),
 the Gaussian 92(TM) system (copyright 1992, Gaussian, Inc.),
 the Gaussian 90(TM) system (copyright 1990, Gaussian, Inc.),
 the Gaussian 88(TM) system (copyright 1988, Gaussian, Inc.),
 the Gaussian 86(TM) system (copyright 1986, Carnegie Mellon
 University), and the Gaussian 82(TM) system (copyright 1983,
 Carnegie Mellon University). Gaussian is a federally registered
 trademark of Gaussian, Inc.
  
 This software contains proprietary and confidential information,
 including trade secrets, belonging to Gaussian, Inc.
  
 This software is provided under written license and may be
 used, copied, transmitted, or stored only in accord with that
 written license.
  
 The following legend is applicable only to US Government
 contracts under FAR:
  
                    RESTRICTED RIGHTS LEGEND
  
 Use, reproduction and disclosure by the US Government is
 subject to restrictions as set forth in subparagraphs (a)
 and (c) of the Commercial Computer Software - Restricted
 Rights clause in FAR 52.227-19.
  
 Gaussian, Inc.
 340 Quinnipiac St., Bldg. 40, Wallingford CT 06492
  
  
 ---------------------------------------------------------------
 Warning -- This program may not be used in any manner that
 competes with the business of Gaussian, Inc. or will provide
 assistance to any competitor of Gaussian, Inc.  The licensee
 of this program is prohibited from giving any competitor of
 Gaussian, Inc. access to this program.  By using this program,
 the user acknowledges that Gaussian, Inc. is engaged in the
 business of creating and licensing software in the field of
 computational chemistry and represents and warrants to the
 licensee that it is not a competitor of Gaussian, Inc. and that
 it will not use this program in any manner prohibited above.
 ---------------------------------------------------------------
  

 Cite this work as:
 Gaussian 16, Revision C.01,
 M. J. Frisch, G. W. Trucks, H. B. Schlegel, G. E. Scuseria, 
 M. A. Robb, J. R. Cheeseman, G. Scalmani, V. Barone, 
 G. A. Petersson, H. Nakatsuji, X. Li, M. Caricato, A. V. Marenich, 
 J. Bloino, B. G. Janesko, R. Gomperts, B. Mennucci, H. P. Hratchian, 
 J. V. Ortiz, A. F. Izmaylov, J. L. Sonnenberg, D. Williams-Young, 
 F. Ding, F. Lipparini, F. Egidi, J. Goings, B. Peng, A. Petrone, 
 T. Henderson, D. Ranasinghe, V. G. Zakrzewski, J. Gao, N. Rega, 
 G. Zheng, W. Liang, M. Hada, M. Ehara, K. Toyota, R. Fukuda, 
 J. Hasegawa, M. Ishida, T. Nakajima, Y. Honda, O. Kitao, H. Nakai, 
 T. Vreven, K. Throssell, J. A. Montgomery, Jr., J. E. Peralta, 
 F. Ogliaro, M. J. Bearpark, J. J. Heyd, E. N. Brothers, K. N. Kudin, 
 V. N. Staroverov, T. A. Keith, R. Kobayashi, J. Normand, 
 K. Raghavachari, A. P. Rendell, J. C. Burant, S. S. Iyengar, 
 J. Tomasi, M. Cossi, J. M. Millam, M. Klene, C. Adamo, R. Cammi, 
 J. W. Ochterski, R. L. Martin, K. Morokuma, O. Farkas, 
 J. B. Foresman, and D. J. Fox, Gaussian, Inc., Wallingford CT, 2019.
 
 ******************************************
 Gaussian 16:  ES64L-G16RevC.01  3-Jul-2019
                 8-Jun-2021 
 ******************************************
 %NprocShared=16
 Will use up to   16 processors via shared memory.
 %oldchk=water.chk
 %chk=water_anion.chk
 %mem=1gb
 Copying data from "water.chk" to current chk file "water_anion.chk"
 IOpt=  2 FromEx=T IUOpen= 4 IOptOp= 5 NList=   0 IFRang= 0 IUIn= 4 IUOut= 2.
 ------------------------------------
 #P B3LYP/cc-pVDZ opt geom=checkpoint
 ------------------------------------
 1/18=20,19=15,26=3,29=2,38=1/1,3;
 2/9=110,12=2,40=1/2;
 3/5=16,11=2,14=-4,25=1,30=1,71=1,74=-5/1,2,3;
 4//1;
 5/5=2,38=5/2;
 6/7=2,8=2,9=2,10=2,28=1/1;
 7//1,2,3,16;
 1/18=20,19=15,26=3/3(2);
 2/9=110/2;
 99//99;
 2/9=110/2;
 3/5=16,11=2,14=-2,25=1,30=1,71=1,74=-5/1,2,3;
 4/5=5,16=3,69=1/1;
 5/5=2,38=5/2;
 7//1,2,3,16;
 1/18=20,19=15,26=3/3(-5);
 2/9=110/2;
 6/7=2,8=2,9=2,10=2,19=2,28=1/1;
 99/9=1/99;
 Leave Link    1 at Tue Jun  8 12:35:50 2021, MaxMem=   134217728 cpu:               0.3 elap:               0.0
 (Enter /APL/ISV/x86_64/gaussian/16/C.01/g16/l101.exe)
 ----------------------
 B3LYP/cc-pVDZ water -1
 ----------------------
 Structure from the checkpoint file:  "water_anion.chk"
 Charge = -1 Multiplicity = 2
 Redundant internal coordinates found in file.  (old form).
 O,0,0.2148511034,0.2148511034,0.
 H,0,1.1776654036,0.1074834929,0.
 H,0,0.1074834929,1.1776654036,0.
 Recover connectivity data from disk.
 ITRead=  0  0  0
 MicOpt= -1 -1 -1
 NAtoms=      3 NQM=        3 NQMF=       0 NMMI=      0 NMMIF=      0
                NMic=       0 NMicF=      0.
                    Isotopes and Nuclear Properties:
 (Nuclear quadrupole moments (NQMom) in fm**2, nuclear magnetic moments (NMagM)
  in nuclear magnetons)

  Atom         1           2           3
 IAtWgt=          16           1           1
 AtmWgt=  15.9949146   1.0078250   1.0078250
 NucSpn=           0           1           1
 AtZEff=   5.6000000   1.0000000   1.0000000
 NQMom=    0.0000000   0.0000000   0.0000000
 NMagM=    0.0000000   2.7928460   2.7928460
 AtZNuc=   8.0000000   1.0000000   1.0000000
 Leave Link  101 at Tue Jun  8 12:35:51 2021, MaxMem=   134217728 cpu:               2.1 elap:               0.2
 (Enter /APL/ISV/x86_64/gaussian/16/C.01/g16/l103.exe)

 GradGradGradGradGradGradGradGradGradGradGradGradGradGradGradGradGradGrad
 Berny optimization.
 Initialization pass.
                           ----------------------------
                           !    Initial Parameters    !
                           ! (Angstroms and Degrees)  !
 --------------------------                            --------------------------
 ! Name  Definition              Value          Derivative Info.                !
 --------------------------------------------------------------------------------
 ! R1    R(1,2)                  0.9688         estimate D2E/DX2                !
 ! R2    R(1,3)                  0.9688         estimate D2E/DX2                !
 ! A1    A(2,1,3)              102.726          estimate D2E/DX2                !
 --------------------------------------------------------------------------------
 Trust Radius=3.00D-01 FncErr=1.00D-07 GrdErr=1.00D-06 EigMax=2.50D+02 EigMin=1.00D-04
 Number of steps in this run=     20 maximum allowed number of steps=    100.
 GradGradGradGradGradGradGradGradGradGradGradGradGradGradGradGradGradGrad

 Leave Link  103 at Tue Jun  8 12:35:51 2021, MaxMem=   134217728 cpu:               0.2 elap:               0.0
 (Enter /APL/ISV/x86_64/gaussian/16/C.01/g16/l202.exe)
                          Input orientation:                          
 ---------------------------------------------------------------------
 Center     Atomic      Atomic             Coordinates (Angstroms)
 Number     Number       Type             X           Y           Z
 ---------------------------------------------------------------------
      1          8           0        0.214851    0.214851    0.000000
      2          1           0        1.177665    0.107483   -0.000000
      3          1           0        0.107483    1.177665    0.000000
 ---------------------------------------------------------------------
                    Distance matrix (angstroms):
                    1          2          3
     1  O    0.000000
     2  H    0.968782   0.000000
     3  H    0.968782   1.513466   0.000000
 Stoichiometry    H2O(1-,2)
 Framework group  C2V[C2(O),SGV(H2)]
 Deg. of freedom     2
 Full point group                 C2V     NOp   4
 RotChk:  IX=0 Diff= 1.39D-16
 Largest Abelian subgroup         C2V     NOp   4
 Largest concise Abelian subgroup C2      NOp   2
                         Standard orientation:                         
 ---------------------------------------------------------------------
 Center     Atomic      Atomic             Coordinates (Angstroms)
 Number     Number       Type             X           Y           Z
 ---------------------------------------------------------------------
      1          8           0        0.000000   -0.000000    0.120978
      2          1           0       -0.000000    0.756733   -0.483914
      3          1           0       -0.000000   -0.756733   -0.483914
 ---------------------------------------------------------------------
 Rotational constants (GHZ):         771.5988288         437.8414213         279.3341199
 Leave Link  202 at Tue Jun  8 12:35:51 2021, MaxMem=   134217728 cpu:               0.2 elap:               0.0
 (Enter /APL/ISV/x86_64/gaussian/16/C.01/g16/l301.exe)
 Standard basis: CC-pVDZ (5D, 7F)
 Ernie: Thresh=  0.10000D-02 Tol=  0.10000D-05 Strict=F.
 Ernie:  2 primitive shells out of 32 were deleted.
 There are    12 symmetry adapted cartesian basis functions of A1  symmetry.
 There are     2 symmetry adapted cartesian basis functions of A2  symmetry.
 There are     4 symmetry adapted cartesian basis functions of B1  symmetry.
 There are     7 symmetry adapted cartesian basis functions of B2  symmetry.
 There are    11 symmetry adapted basis functions of A1  symmetry.
 There are     2 symmetry adapted basis functions of A2  symmetry.
 There are     4 symmetry adapted basis functions of B1  symmetry.
 There are     7 symmetry adapted basis functions of B2  symmetry.
    24 basis functions,    47 primitive gaussians,    25 cartesian basis functions
     6 alpha electrons        5 beta electrons
       nuclear repulsion energy         9.0893135050 Hartrees.
 IExCor=  402 DFT=T Ex+Corr=B3LYP ExCW=0 ScaHFX=  0.200000
 ScaDFX=  0.800000  0.720000  1.000000  0.810000 ScalE2=  1.000000  1.000000
 IRadAn=      5 IRanWt=     -1 IRanGd=            0 ICorTp=0 IEmpDi=  4
 NAtoms=    3 NActive=    3 NUniq=    2 SFac= 2.25D+00 NAtFMM=   60 NAOKFM=F Big=F
 Integral buffers will be    131072 words long.
 Raffenetti 2 integral format.
 Two-electron integral symmetry is turned on.
 Leave Link  301 at Tue Jun  8 12:35:51 2021, MaxMem=   134217728 cpu:               0.9 elap:               0.1
 (Enter /APL/ISV/x86_64/gaussian/16/C.01/g16/l302.exe)
 NPDir=0 NMtPBC=     1 NCelOv=     1 NCel=       1 NClECP=     1 NCelD=      1
         NCelK=      1 NCelE2=     1 NClLst=     1 CellRange=     0.0.
 One-electron integrals computed using PRISM.
 One-electron integral symmetry used in STVInt
 NBasis=    24 RedAO= T EigKep=  3.51D-02  NBF=    11     2     4     7
 NBsUse=    24 1.00D-06 EigRej= -1.00D+00 NBFU=    11     2     4     7
 Precomputing XC quadrature grid using
 IXCGrd= 4 IRadAn=           5 IRanWt=          -1 IRanGd=           0 AccXCQ= 0.00D+00.
 Generated NRdTot=       0 NPtTot=           0 NUsed=           0 NTot=          32
 NSgBfM=    25    25    25    25    25 MxSgAt=     3 MxSgA2=     3.
 Leave Link  302 at Tue Jun  8 12:35:51 2021, MaxMem=   134217728 cpu:               1.6 elap:               0.1
 (Enter /APL/ISV/x86_64/gaussian/16/C.01/g16/l303.exe)
 DipDrv:  MaxL=1.
 Leave Link  303 at Tue Jun  8 12:35:51 2021, MaxMem=   134217728 cpu:               0.4 elap:               0.0
 (Enter /APL/ISV/x86_64/gaussian/16/C.01/g16/l401.exe)
 ExpMin= 1.22D-01 ExpMax= 1.17D+04 ExpMxC= 4.01D+02 IAcc=3 IRadAn=         5 AccDes= 0.00D+00
 Harris functional with IExCor=  402 and IRadAn=       5 diagonalized for initial guess.
 HarFok:  IExCor=  402 AccDes= 0.00D+00 IRadAn=         5 IDoV= 1 UseB2=F ITyADJ=14
 ICtDFT=  3500011 ScaDFX=  1.000000  1.000000  1.000000  1.000000
 FoFCou: FMM=F IPFlag=           0 FMFlag=      100000 FMFlg1=           0
         NFxFlg=           0 DoJE=T BraDBF=F KetDBF=T FulRan=T
         wScrn=  0.000000 ICntrl=       500 IOpCl=  0 I1Cent=   200000004 NGrid=           0
         NMat0=    1 NMatS0=      1 NMatT0=    0 NMatD0=    1 NMtDS0=    0 NMtDT0=    0
 Petite list used in FoFCou.
 Harris En= -76.4772797655431    
 JPrj=0 DoOrth=F DoCkMO=F.
 Initial guess orbital symmetries:
 Alpha Orbitals:
       Occupied  (A1) (A1) (B2) (A1) (B1) (A1)
       Virtual   (B2) (B2) (A1) (B1) (A1) (B2) (A1) (A2) (B1) (A1)
                 (B2) (B2) (A1) (B1) (A2) (A1) (A1) (B2)
 Beta  Orbitals:
       Occupied  (A1) (A1) (B2) (A1) (B1)
       Virtual   (A1) (B2) (B2) (A1) (B1) (A1) (B2) (A1) (A2) (B1)
                 (A1) (B2) (B2) (A1) (B1) (A2) (A1) (A1) (B2)
 The electronic state of the initial guess is 2-A1.
 Initial guess <Sx>= 0.0000 <Sy>= 0.0000 <Sz>= 0.5000 <S**2>= 0.7500 S= 0.5000
 Leave Link  401 at Tue Jun  8 12:35:51 2021, MaxMem=   134217728 cpu:               1.7 elap:               0.1
 (Enter /APL/ISV/x86_64/gaussian/16/C.01/g16/l502.exe)
 Keep R1 and R2 ints in memory in symmetry-blocked form, NReq=13860511.
 FoFCou: FMM=F IPFlag=           0 FMFlag=           0 FMFlg1=           0
         NFxFlg=           0 DoJE=F BraDBF=F KetDBF=F FulRan=T
         wScrn=  0.000000 ICntrl=       600 IOpCl=  0 I1Cent=           0 NGrid=           0
         NMat0=    1 NMatS0=    300 NMatT0=    0 NMatD0=    1 NMtDS0=    0 NMtDT0=    0
 Petite list used in FoFCou.
 UHF open shell SCF:
 Using DIIS extrapolation, IDIIS=  1040.
 NGot=   134217728 LenX=   134189263 LenY=   134188197
 Requested convergence on RMS density matrix=1.00D-08 within 128 cycles.
 Requested convergence on MAX density matrix=1.00D-06.
 Requested convergence on             energy=1.00D-06.
 No special actions if energy rises.
 Integral accuracy reduced to 1.0D-05 until final iterations.

 Cycle   1  Pass 0  IDiag  1:
 E= -76.1466117518275    
 DIIS: error= 7.72D-02 at cycle   1 NSaved=   1.
 NSaved= 1 IEnMin= 1 EnMin= -76.1466117518275     IErMin= 1 ErrMin= 7.72D-02
 ErrMax= 7.72D-02  0.00D+00 EMaxC= 1.00D-01 BMatC= 6.59D-01 BMatP= 6.59D-01
 IDIUse=3 WtCom= 2.28D-01 WtEn= 7.72D-01
 Coeff-Com:  0.100D+01
 Coeff-En:   0.100D+01
 Coeff:      0.100D+01
 Gap=     0.134 Goal=   None    Shift=    0.000
 Gap=     0.121 Goal=   None    Shift=    0.000
 GapD=    0.121 DampG=1.000 DampE=0.500 DampFc=0.5000 IDamp=-1.
 Damping current iteration by 5.00D-01
 RMSDP=3.90D-02 MaxDP=4.73D-01              OVMax= 2.96D-01

 Cycle   2  Pass 0  IDiag  1:
 E= -76.1899519248677     Delta-E=       -0.043340173040 Rises=F Damp=T
 DIIS: error= 2.28D-02 at cycle   2 NSaved=   2.
 NSaved= 2 IEnMin= 2 EnMin= -76.1899519248677     IErMin= 2 ErrMin= 2.28D-02
 ErrMax= 2.28D-02  0.00D+00 EMaxC= 1.00D-01 BMatC= 4.31D-02 BMatP= 6.59D-01
 IDIUse=3 WtCom= 7.72D-01 WtEn= 2.28D-01
 Coeff-Com:  0.188D+00 0.812D+00
 Coeff-En:   0.302D+00 0.698D+00
 Coeff:      0.214D+00 0.786D+00
 Gap=     0.122 Goal=   None    Shift=    0.000
 Gap=     0.278 Goal=   None    Shift=    0.000
 RMSDP=4.92D-03 MaxDP=5.67D-02 DE=-4.33D-02 OVMax= 1.67D-01

 Cycle   3  Pass 0  IDiag  1:
 E= -76.2758218542326     Delta-E=       -0.085869929365 Rises=F Damp=F
 DIIS: error= 3.88D-03 at cycle   3 NSaved=   3.
 NSaved= 3 IEnMin= 3 EnMin= -76.2758218542326     IErMin= 3 ErrMin= 3.88D-03
 ErrMax= 3.88D-03  0.00D+00 EMaxC= 1.00D-01 BMatC= 1.48D-03 BMatP= 4.31D-02
 IDIUse=3 WtCom= 9.61D-01 WtEn= 3.88D-02
 Coeff-Com:  0.332D-01-0.449D-01 0.101D+01
 Coeff-En:   0.000D+00 0.000D+00 0.100D+01
 Coeff:      0.319D-01-0.432D-01 0.101D+01
 Gap=     0.116 Goal=   None    Shift=    0.000
 Gap=     0.297 Goal=   None    Shift=    0.000
 RMSDP=6.38D-04 MaxDP=4.96D-03 DE=-8.59D-02 OVMax= 4.98D-03

 Cycle   4  Pass 0  IDiag  1:
 E= -76.2760913482931     Delta-E=       -0.000269494061 Rises=F Damp=F
 DIIS: error= 7.05D-04 at cycle   4 NSaved=   4.
 NSaved= 4 IEnMin= 4 EnMin= -76.2760913482931     IErMin= 4 ErrMin= 7.05D-04
 ErrMax= 7.05D-04  0.00D+00 EMaxC= 1.00D-01 BMatC= 2.91D-05 BMatP= 1.48D-03
 IDIUse=3 WtCom= 9.93D-01 WtEn= 7.05D-03
 Coeff-Com:  0.416D-02-0.282D-01 0.213D+00 0.811D+00
 Coeff-En:   0.000D+00 0.000D+00 0.000D+00 0.100D+01
 Coeff:      0.413D-02-0.280D-01 0.211D+00 0.813D+00
 Gap=     0.116 Goal=   None    Shift=    0.000
 Gap=     0.298 Goal=   None    Shift=    0.000
 RMSDP=1.56D-04 MaxDP=1.52D-03 DE=-2.69D-04 OVMax= 1.13D-03

 Cycle   5  Pass 0  IDiag  1:
 E= -76.2760978213516     Delta-E=       -0.000006473058 Rises=F Damp=F
 DIIS: error= 1.45D-04 at cycle   5 NSaved=   5.
 NSaved= 5 IEnMin= 5 EnMin= -76.2760978213516     IErMin= 5 ErrMin= 1.45D-04
 ErrMax= 1.45D-04  0.00D+00 EMaxC= 1.00D-01 BMatC= 7.91D-07 BMatP= 2.91D-05
 IDIUse=3 WtCom= 9.99D-01 WtEn= 1.45D-03
 Coeff-Com: -0.485D-03 0.219D-02-0.377D-01-0.325D-01 0.107D+01
 Coeff-En:   0.000D+00 0.000D+00 0.000D+00 0.000D+00 0.100D+01
 Coeff:     -0.484D-03 0.219D-02-0.376D-01-0.324D-01 0.107D+01
 Gap=     0.116 Goal=   None    Shift=    0.000
 Gap=     0.298 Goal=   None    Shift=    0.000
 RMSDP=2.50D-05 MaxDP=2.18D-04 DE=-6.47D-06 OVMax= 3.36D-04

 Cycle   6  Pass 0  IDiag  1:
 E= -76.2760981025751     Delta-E=       -0.000000281223 Rises=F Damp=F
 DIIS: error= 3.02D-05 at cycle   6 NSaved=   6.
 NSaved= 6 IEnMin= 6 EnMin= -76.2760981025751     IErMin= 6 ErrMin= 3.02D-05
 ErrMax= 3.02D-05  0.00D+00 EMaxC= 1.00D-01 BMatC= 3.75D-08 BMatP= 7.91D-07
 IDIUse=1 WtCom= 1.00D+00 WtEn= 0.00D+00
 Coeff-Com: -0.278D-03 0.908D-03-0.507D-02-0.225D-01-0.947D-01 0.112D+01
 Coeff:     -0.278D-03 0.908D-03-0.507D-02-0.225D-01-0.947D-01 0.112D+01
 Gap=     0.116 Goal=   None    Shift=    0.000
 Gap=     0.298 Goal=   None    Shift=    0.000
 RMSDP=6.72D-06 MaxDP=6.73D-05 DE=-2.81D-07 OVMax= 9.57D-05

 Initial convergence to 1.0D-05 achieved.  Increase integral accuracy.
 Cycle   7  Pass 1  IDiag  1:
 E= -76.2760999357188     Delta-E=       -0.000001833144 Rises=F Damp=F
 DIIS: error= 4.73D-06 at cycle   1 NSaved=   1.
 NSaved= 1 IEnMin= 1 EnMin= -76.2760999357188     IErMin= 1 ErrMin= 4.73D-06
 ErrMax= 4.73D-06  0.00D+00 EMaxC= 1.00D-01 BMatC= 1.29D-09 BMatP= 1.29D-09
 IDIUse=1 WtCom= 1.00D+00 WtEn= 0.00D+00
 Coeff-Com:  0.100D+01
 Coeff:      0.100D+01
 Gap=     0.116 Goal=   None    Shift=    0.000
 Gap=     0.298 Goal=   None    Shift=    0.000
 RMSDP=6.72D-06 MaxDP=6.73D-05 DE=-1.83D-06 OVMax= 1.62D-05

 Cycle   8  Pass 1  IDiag  1:
 E= -76.2760999364972     Delta-E=       -0.000000000778 Rises=F Damp=F
 DIIS: error= 2.45D-06 at cycle   2 NSaved=   2.
 NSaved= 2 IEnMin= 2 EnMin= -76.2760999364972     IErMin= 2 ErrMin= 2.45D-06
 ErrMax= 2.45D-06  0.00D+00 EMaxC= 1.00D-01 BMatC= 2.23D-10 BMatP= 1.29D-09
 IDIUse=1 WtCom= 1.00D+00 WtEn= 0.00D+00
 Coeff-Com: -0.230D+00 0.123D+01
 Coeff:     -0.230D+00 0.123D+01
 Gap=     0.116 Goal=   None    Shift=    0.000
 Gap=     0.298 Goal=   None    Shift=    0.000
 RMSDP=6.75D-07 MaxDP=7.49D-06 DE=-7.78D-10 OVMax= 9.89D-06

 Cycle   9  Pass 1  IDiag  1:
 E= -76.2760999365983     Delta-E=       -0.000000000101 Rises=F Damp=F
 DIIS: error= 1.52D-06 at cycle   3 NSaved=   3.
 NSaved= 3 IEnMin= 3 EnMin= -76.2760999365983     IErMin= 3 ErrMin= 1.52D-06
 ErrMax= 1.52D-06  0.00D+00 EMaxC= 1.00D-01 BMatC= 1.65D-10 BMatP= 2.23D-10
 IDIUse=1 WtCom= 1.00D+00 WtEn= 0.00D+00
 Coeff-Com: -0.260D+00 0.680D+00 0.581D+00
 Coeff:     -0.260D+00 0.680D+00 0.581D+00
 Gap=     0.116 Goal=   None    Shift=    0.000
 Gap=     0.298 Goal=   None    Shift=    0.000
 RMSDP=2.55D-07 MaxDP=2.48D-06 DE=-1.01D-10 OVMax= 3.39D-06

 Cycle  10  Pass 1  IDiag  1:
 E= -76.2760999366315     Delta-E=       -0.000000000033 Rises=F Damp=F
 DIIS: error= 3.17D-07 at cycle   4 NSaved=   4.
 NSaved= 4 IEnMin= 4 EnMin= -76.2760999366315     IErMin= 4 ErrMin= 3.17D-07
 ErrMax= 3.17D-07  0.00D+00 EMaxC= 1.00D-01 BMatC= 9.15D-12 BMatP= 1.65D-10
 IDIUse=1 WtCom= 1.00D+00 WtEn= 0.00D+00
 Coeff-Com: -0.876D-01 0.145D+00 0.242D+00 0.700D+00
 Coeff:     -0.876D-01 0.145D+00 0.242D+00 0.700D+00
 Gap=     0.116 Goal=   None    Shift=    0.000
 Gap=     0.298 Goal=   None    Shift=    0.000
 RMSDP=4.99D-08 MaxDP=5.96D-07 DE=-3.31D-11 OVMax= 9.02D-07

 Cycle  11  Pass 1  IDiag  1:
 E= -76.2760999366334     Delta-E=       -0.000000000002 Rises=F Damp=F
 DIIS: error= 2.81D-08 at cycle   5 NSaved=   5.
 NSaved= 5 IEnMin= 5 EnMin= -76.2760999366334     IErMin= 5 ErrMin= 2.81D-08
 ErrMax= 2.81D-08  0.00D+00 EMaxC= 1.00D-01 BMatC= 6.04D-14 BMatP= 9.15D-12
 IDIUse=1 WtCom= 1.00D+00 WtEn= 0.00D+00
 Coeff-Com:  0.761D-02-0.206D-01-0.218D-01 0.244D-01 0.101D+01
 Coeff:      0.761D-02-0.206D-01-0.218D-01 0.244D-01 0.101D+01
 Gap=     0.116 Goal=   None    Shift=    0.000
 Gap=     0.298 Goal=   None    Shift=    0.000
 RMSDP=7.58D-09 MaxDP=6.35D-08 DE=-1.90D-12 OVMax= 6.24D-08

 SCF Done:  E(UB3LYP) =  -76.2760999366     A.U. after   11 cycles
            NFock= 11  Conv=0.76D-08     -V/T= 1.9975
 <Sx>= 0.0000 <Sy>= 0.0000 <Sz>= 0.5000 <S**2>= 0.7509 S= 0.5004
 <L.S>= 0.000000000000E+00
 KE= 7.646814877173D+01 PE=-2.025290896466D+02 EE= 4.069552743320D+01
 Annihilation of the first spin contaminant:
 S**2 before annihilation     0.7509,   after     0.7500
 Leave Link  502 at Tue Jun  8 12:35:51 2021, MaxMem=   134217728 cpu:               2.4 elap:               0.2
 (Enter /APL/ISV/x86_64/gaussian/16/C.01/g16/l601.exe)
 Copying SCF densities to generalized density rwf, IOpCl= 1 IROHF=0.

 **********************************************************************

            Population analysis using the SCF Density.

 **********************************************************************

 Orbital symmetries:
 Alpha Orbitals:
       Occupied  (A1) (A1) (B2) (A1) (B1) (A1)
       Virtual   (B2) (B2) (A1) (A1) (B1) (B2) (A1) (A2) (B1) (A1)
                 (B2) (B2) (A1) (B1) (A2) (A1) (A1) (B2)
 Beta  Orbitals:
       Occupied  (A1) (A1) (B2) (A1) (B1)
       Virtual   (A1) (B2) (B2) (A1) (A1) (B1) (B2) (A1) (A2) (B1)
                 (A1) (B2) (B2) (A1) (B1) (A2) (A1) (A1) (B2)
 The electronic state is 2-A1.
 Alpha  occ. eigenvalues --  -18.79159  -0.67354  -0.18979  -0.06568   0.02254
 Alpha  occ. eigenvalues --    0.24197
 Alpha virt. eigenvalues --    0.35776   0.84539   0.90435   1.19316   1.21074
 Alpha virt. eigenvalues --    1.27320   1.49229   1.55451   1.72618   1.88874
 Alpha virt. eigenvalues --    1.98237   2.40346   2.44558   3.23189   3.26306
 Alpha virt. eigenvalues --    3.43498   3.75599   4.04263
  Beta  occ. eigenvalues --  -18.78442  -0.65477  -0.17998  -0.05392   0.03056
  Beta virt. eigenvalues --    0.32863   0.39308   0.85668   0.93138   1.20517
  Beta virt. eigenvalues --    1.22149   1.28624   1.50356   1.56593   1.73722
  Beta virt. eigenvalues --    1.89761   1.99643   2.41826   2.46660   3.24541
  Beta virt. eigenvalues --    3.26924   3.45018   3.76370   4.05552
          Condensed to atoms (all electrons):
               1          2          3
     1  O    8.840028  -0.306503  -0.306503
     2  H   -0.306503   1.331770   0.361223
     3  H   -0.306503   0.361223   1.331770
          Atomic-Atomic Spin Densities.
               1          2          3
     1  O    1.292007  -0.656630  -0.656630
     2  H   -0.656630   0.749407   0.417848
     3  H   -0.656630   0.417848   0.749407
 Mulliken charges and spin densities:
               1          2
     1  O   -0.227021  -0.021252
     2  H   -0.386489   0.510626
     3  H   -0.386489   0.510626
 Sum of Mulliken charges =  -1.00000   1.00000
 Mulliken charges and spin densities with hydrogens summed into heavy atoms:
               1          2
     1  O   -1.000000   1.000000
 Electronic spatial extent (au):  <R**2>=             31.3072
 Charge=             -1.0000 electrons
 Dipole moment (field-independent basis, Debye):
    X=              0.0000    Y=              0.0000    Z=              0.8425  Tot=              0.8425
 Quadrupole moment (field-independent basis, Debye-Ang):
   XX=            -10.6854   YY=            -11.4642   ZZ=            -11.6467
   XY=             -0.0000   XZ=             -0.0000   YZ=             -0.0000
 Traceless Quadrupole moment (field-independent basis, Debye-Ang):
   XX=              0.5800   YY=             -0.1987   ZZ=             -0.3813
   XY=             -0.0000   XZ=             -0.0000   YZ=             -0.0000
 Octapole moment (field-independent basis, Debye-Ang**2):
  XXX=              0.0000  YYY=              0.0000  ZZZ=              6.0118  XYY=              0.0000
  XXY=              0.0000  XXZ=              1.7346  XZZ=              0.0000  YZZ=             -0.0000
  YYZ=              2.6297  XYZ=              0.0000
 Hexadecapole moment (field-independent basis, Debye-Ang**3):
 XXXX=            -12.3816 YYYY=            -28.2945 ZZZZ=            -21.7441 XXXY=             -0.0000
 XXXZ=             -0.0000 YYYX=             -0.0000 YYYZ=              0.0000 ZZZX=             -0.0000
 ZZZY=              0.0000 XXYY=             -6.6538 XXZZ=             -5.6507 YYZZ=             -8.3963
 XXYZ=              0.0000 YYXZ=             -0.0000 ZZXY=             -0.0000
 N-N= 9.089313505034D+00 E-N=-2.025290890579D+02  KE= 7.646814877173D+01
 Symmetry A1   KE= 6.862023825553D+01
 Symmetry A2   KE= 1.916398276652D-34
 Symmetry B1   KE= 4.460364826276D+00
 Symmetry B2   KE= 3.387545689923D+00
 Symmetry A1   SP= 1.000000000000D+00
 Symmetry A2   SP= 6.018531076210D-36
 Symmetry B1   SP= 2.991205373670D-15
 Symmetry B2   SP= 3.433642408848D-17
                          Isotropic Fermi Contact Couplings
        Atom                 a.u.       MegaHertz       Gauss      10(-4) cm-1
     1  O(17)              0.99664    -604.16070    -215.57956    -201.52632
     2  H(1)               0.00072       3.19845       1.14129       1.06689
     3  H(1)               0.00072       3.19845       1.14129       1.06689
 --------------------------------------------------------
       Center         ----  Spin Dipole Couplings  ----
                      3XX-RR        3YY-RR        3ZZ-RR
 --------------------------------------------------------
     1   Atom       -0.188619     -0.307737      0.496356
     2   Atom       -0.040086      0.057957     -0.017871
     3   Atom       -0.040086      0.057957     -0.017871
 --------------------------------------------------------
                        XY            XZ            YZ
 --------------------------------------------------------
     1   Atom        0.000000     -0.000000      0.000000
     2   Atom       -0.000000      0.000000     -0.038902
     3   Atom        0.000000      0.000000      0.038902
 --------------------------------------------------------


 ---------------------------------------------------------------------------------
              Anisotropic Spin Dipole Couplings in Principal Axis System
 ---------------------------------------------------------------------------------

       Atom             a.u.   MegaHertz   Gauss  10(-4) cm-1        Axes

              Baa    -0.3077    22.268     7.946     7.428 -0.0000  1.0000 -0.0000
     1 O(17)  Bbb    -0.1886    13.648     4.870     4.553  1.0000  0.0000  0.0000
              Bcc     0.4964   -35.916   -12.816   -11.980 -0.0000  0.0000  1.0000
 
              Baa    -0.0401   -21.388    -7.632    -7.134  1.0000  0.0000  0.0000
     2 H(1)   Bbb    -0.0343   -18.289    -6.526    -6.101 -0.0000  0.3886  0.9214
              Bcc     0.0744    39.677    14.158    13.235 -0.0000  0.9214 -0.3886
 
              Baa    -0.0401   -21.388    -7.632    -7.134  1.0000 -0.0000  0.0000
     3 H(1)   Bbb    -0.0343   -18.289    -6.526    -6.101 -0.0000 -0.3886  0.9214
              Bcc     0.0744    39.677    14.158    13.235  0.0000  0.9214  0.3886
 

 ---------------------------------------------------------------------------------

 No NMR shielding tensors so no spin-rotation constants.
 Leave Link  601 at Tue Jun  8 12:35:51 2021, MaxMem=   134217728 cpu:               2.0 elap:               0.2
 (Enter /APL/ISV/x86_64/gaussian/16/C.01/g16/l701.exe)
 ... and contract with generalized density number  0.
 Compute integral first derivatives.
 Leave Link  701 at Tue Jun  8 12:35:51 2021, MaxMem=   134217728 cpu:               1.3 elap:               0.1
 (Enter /APL/ISV/x86_64/gaussian/16/C.01/g16/l702.exe)
 L702 exits ... SP integral derivatives will be done elsewhere.
 Leave Link  702 at Tue Jun  8 12:35:52 2021, MaxMem=   134217728 cpu:               0.3 elap:               0.0
 (Enter /APL/ISV/x86_64/gaussian/16/C.01/g16/l703.exe)
 Integral derivatives from FoFJK, PRISM(SPDF).
 Compute integral first derivatives, UseDBF=F ICtDFT=           0.
 Calling FoFJK, ICntrl=      2127 FMM=F ISym2X=1 I1Cent= 0 IOpClX= 1 NMat=1 NMatS=1 NMatT=0.
 FoFJK:  IHMeth= 1 ICntrl=    2127 DoSepK=F KAlg= 0 I1Cent=           0 FoldK=F
 IRaf=         0 NMat=       1 IRICut=       1 DoRegI=T DoRafI=F ISym2E= 1 IDoP0=0 IntGTp=1.
 FoFCou: FMM=F IPFlag=           0 FMFlag=      100000 FMFlg1=         800
         NFxFlg=           0 DoJE=F BraDBF=F KetDBF=F FulRan=T
         wScrn=  0.000000 ICntrl=      2127 IOpCl=  1 I1Cent=           0 NGrid=           0
         NMat0=    1 NMatS0=      1 NMatT0=    0 NMatD0=    1 NMtDS0=    0 NMtDT0=    0
 Petite list used in FoFCou.
 Leave Link  703 at Tue Jun  8 12:35:52 2021, MaxMem=   134217728 cpu:               1.9 elap:               0.1
 (Enter /APL/ISV/x86_64/gaussian/16/C.01/g16/l716.exe)
 Dipole        = 1.07778570D-16 2.22044605D-16 3.31464344D-01
 ***** Axes restored to original set *****
 -------------------------------------------------------------------
 Center     Atomic                   Forces (Hartrees/Bohr)
 Number     Number              X              Y              Z
 -------------------------------------------------------------------
      1        8          -0.049564816   -0.049564816    0.000000000
      2        1           0.050673492   -0.001108675   -0.000000000
      3        1          -0.001108675    0.050673492   -0.000000000
 -------------------------------------------------------------------
 Cartesian Forces:  Max     0.050673492 RMS     0.033418900
 Leave Link  716 at Tue Jun  8 12:35:52 2021, MaxMem=   134217728 cpu:               0.4 elap:               0.0
 (Enter /APL/ISV/x86_64/gaussian/16/C.01/g16/l103.exe)

 GradGradGradGradGradGradGradGradGradGradGradGradGradGradGradGradGradGrad
 Berny optimization.
 FormGI is forming the generalized inverse of G from B-inverse, IUseBI=4.
 Internal  Forces:  Max     0.050484198 RMS     0.041495405
 Search for a local minimum.
 Step number   1 out of a maximum of   20
 All quantities printed in internal units (Hartrees-Bohrs-Radians)
 RMS Force = .41495D-01 SwitMx=.10000D-02 MixMth= 1
 Mixed Optimization -- RFO/linear search
 Second derivative matrix not updated -- first step.
 The second derivative matrix:
                          R1        R2        A1
           R1           0.53627
           R2           0.00000   0.53627
           A1           0.00000   0.00000   0.16000
 ITU=  0
     Eigenvalues ---    0.16000   0.53627   0.53627
 RFO step:  Lambda=-9.73804394D-03 EMin= 1.60000000D-01
 Linear search not attempted -- first point.
 Iteration  1 RMS(Cart)=  0.05672030 RMS(Int)=  0.00142025
 Iteration  2 RMS(Cart)=  0.00164616 RMS(Int)=  0.00000114
 Iteration  3 RMS(Cart)=  0.00000081 RMS(Int)=  0.00000000
 ITry= 1 IFail=0 DXMaxC= 5.22D-02 DCOld= 1.00D+10 DXMaxT= 3.00D-01 DXLimC= 3.00D+00 Rises=F
 ClnCor:  largest displacement from symmetrization is 6.36D-15 for atom     3.
 Variable       Old X    -DE/DX   Delta X   Delta X   Delta X     New X
                                 (Linear)    (Quad)   (Total)
    R1        1.83073   0.05048   0.00000   0.09246   0.09246   1.92319
    R2        1.83073   0.05048   0.00000   0.09246   0.09246   1.92319
    A1        1.79291  -0.00826   0.00000  -0.04869  -0.04869   1.74422
         Item               Value     Threshold  Converged?
 Maximum Force            0.050484     0.000450     NO 
 RMS     Force            0.041495     0.000300     NO 
 Maximum Displacement     0.052229     0.001800     NO 
 RMS     Displacement     0.056286     0.001200     NO 
 Predicted change in Energy=-4.963816D-03
 Lowest energy point so far.  Saving SCF results.
 GradGradGradGradGradGradGradGradGradGradGradGradGradGradGradGradGradGrad

 Leave Link  103 at Tue Jun  8 12:35:52 2021, MaxMem=   134217728 cpu:               0.1 elap:               0.0
 (Enter /APL/ISV/x86_64/gaussian/16/C.01/g16/l202.exe)
                          Input orientation:                          
 ---------------------------------------------------------------------
 Center     Atomic      Atomic             Coordinates (Angstroms)
 Number     Number       Type             X           Y           Z
 ---------------------------------------------------------------------
      1          8           0        0.191416    0.191416    0.000000
      2          1           0        1.205304    0.103280   -0.000000
      3          1           0        0.103280    1.205304    0.000000
 ---------------------------------------------------------------------
                    Distance matrix (angstroms):
                    1          2          3
     1  O    0.000000
     2  H    1.017711   0.000000
     3  H    1.017711   1.558497   0.000000
 Stoichiometry    H2O(1-,2)
 Framework group  C2V[C2(O),SGV(H2)]
 Deg. of freedom     2
 Full point group                 C2V     NOp   4
 RotChk:  IX=0 Diff= 6.57D-16
 Largest Abelian subgroup         C2V     NOp   4
 Largest concise Abelian subgroup C2      NOp   2
                         Standard orientation:                         
 ---------------------------------------------------------------------
 Center     Atomic      Atomic             Coordinates (Angstroms)
 Number     Number       Type             X           Y           Z
 ---------------------------------------------------------------------
      1          8           0        0.000000    0.000000    0.130921
      2          1           0       -0.000000    0.779248   -0.523684
      3          1           0       -0.000000   -0.779248   -0.523684
 ---------------------------------------------------------------------
 Rotational constants (GHZ):         658.8545325         412.9049929         253.8296321
 Leave Link  202 at Tue Jun  8 12:35:52 2021, MaxMem=   134217728 cpu:               0.2 elap:               0.0
 (Enter /APL/ISV/x86_64/gaussian/16/C.01/g16/l301.exe)
 Standard basis: CC-pVDZ (5D, 7F)
 Ernie: Thresh=  0.10000D-02 Tol=  0.10000D-05 Strict=F.
 Ernie:  2 primitive shells out of 32 were deleted.
 There are    12 symmetry adapted cartesian basis functions of A1  symmetry.
 There are     2 symmetry adapted cartesian basis functions of A2  symmetry.
 There are     4 symmetry adapted cartesian basis functions of B1  symmetry.
 There are     7 symmetry adapted cartesian basis functions of B2  symmetry.
 There are    11 symmetry adapted basis functions of A1  symmetry.
 There are     2 symmetry adapted basis functions of A2  symmetry.
 There are     4 symmetry adapted basis functions of B1  symmetry.
 There are     7 symmetry adapted basis functions of B2  symmetry.
    24 basis functions,    47 primitive gaussians,    25 cartesian basis functions
     6 alpha electrons        5 beta electrons
       nuclear repulsion energy         8.6590341507 Hartrees.
 IExCor=  402 DFT=T Ex+Corr=B3LYP ExCW=0 ScaHFX=  0.200000
 ScaDFX=  0.800000  0.720000  1.000000  0.810000 ScalE2=  1.000000  1.000000
 IRadAn=      5 IRanWt=     -1 IRanGd=            0 ICorTp=0 IEmpDi=  4
 NAtoms=    3 NActive=    3 NUniq=    2 SFac= 2.25D+00 NAtFMM=   60 NAOKFM=F Big=F
 Integral buffers will be    131072 words long.
 Raffenetti 2 integral format.
 Two-electron integral symmetry is turned on.
 Leave Link  301 at Tue Jun  8 12:35:52 2021, MaxMem=   134217728 cpu:               0.9 elap:               0.1
 (Enter /APL/ISV/x86_64/gaussian/16/C.01/g16/l302.exe)
 NPDir=0 NMtPBC=     1 NCelOv=     1 NCel=       1 NClECP=     1 NCelD=      1
         NCelK=      1 NCelE2=     1 NClLst=     1 CellRange=     0.0.
 One-electron integrals computed using PRISM.
 One-electron integral symmetry used in STVInt
 NBasis=    24 RedAO= T EigKep=  3.86D-02  NBF=    11     2     4     7
 NBsUse=    24 1.00D-06 EigRej= -1.00D+00 NBFU=    11     2     4     7
 Precomputing XC quadrature grid using
 IXCGrd= 4 IRadAn=           5 IRanWt=          -1 IRanGd=           0 AccXCQ= 0.00D+00.
 Generated NRdTot=       0 NPtTot=           0 NUsed=           0 NTot=          32
 NSgBfM=    25    25    25    25    25 MxSgAt=     3 MxSgA2=     3.
 Leave Link  302 at Tue Jun  8 12:35:52 2021, MaxMem=   134217728 cpu:               1.5 elap:               0.1
 (Enter /APL/ISV/x86_64/gaussian/16/C.01/g16/l303.exe)
 DipDrv:  MaxL=1.
 Leave Link  303 at Tue Jun  8 12:35:52 2021, MaxMem=   134217728 cpu:               0.5 elap:               0.1
 (Enter /APL/ISV/x86_64/gaussian/16/C.01/g16/l401.exe)
 Initial guess from the checkpoint file:  "water_anion.chk"
 B after Tr=    -0.000000   -0.000000   -0.000000
         Rot=    1.000000   -0.000000    0.000000    0.000000 Ang=   0.00 deg.
 Guess basis will be translated and rotated to current coordinates.
 JPrj=2 DoOrth=T DoCkMO=T.
 Initial guess orbital symmetries:
 Alpha Orbitals:
       Occupied  (A1) (A1) (B2) (A1) (B1) (A1)
       Virtual   (B2) (B2) (A1) (A1) (B1) (B2) (A1) (A2) (B1) (A1)
                 (B2) (B2) (A1) (B1) (A2) (A1) (A1) (B2)
 Beta  Orbitals:
       Occupied  (A1) (A1) (B2) (A1) (B1)
       Virtual   (A1) (B2) (B2) (A1) (A1) (B1) (B2) (A1) (A2) (B1)
                 (A1) (B2) (B2) (A1) (B1) (A2) (A1) (A1) (B2)
 The electronic state of the initial guess is 2-A1.
 Initial guess <Sx>= 0.0000 <Sy>= 0.0000 <Sz>= 0.5000 <S**2>= 0.7509 S= 0.5005
 Generating alternative initial guess.
 ExpMin= 1.22D-01 ExpMax= 1.17D+04 ExpMxC= 4.01D+02 IAcc=3 IRadAn=         5 AccDes= 0.00D+00
 Harris functional with IExCor=  402 and IRadAn=       5 diagonalized for initial guess.
 HarFok:  IExCor=  402 AccDes= 0.00D+00 IRadAn=         5 IDoV= 1 UseB2=F ITyADJ=14
 ICtDFT=  3500011 ScaDFX=  1.000000  1.000000  1.000000  1.000000
 FoFCou: FMM=F IPFlag=           0 FMFlag=      100000 FMFlg1=           0
         NFxFlg=           0 DoJE=T BraDBF=F KetDBF=T FulRan=T
         wScrn=  0.000000 ICntrl=       500 IOpCl=  0 I1Cent=   200000004 NGrid=           0
         NMat0=    1 NMatS0=      1 NMatT0=    0 NMatD0=    1 NMtDS0=    0 NMtDT0=    0
 Petite list used in FoFCou.
 Harris En= -76.4808160465696    
 Leave Link  401 at Tue Jun  8 12:35:52 2021, MaxMem=   134217728 cpu:               2.6 elap:               0.2
 (Enter /APL/ISV/x86_64/gaussian/16/C.01/g16/l502.exe)
 Keep R1 and R2 ints in memory in symmetry-blocked form, NReq=13860511.
 FoFCou: FMM=F IPFlag=           0 FMFlag=           0 FMFlg1=           0
         NFxFlg=           0 DoJE=F BraDBF=F KetDBF=F FulRan=T
         wScrn=  0.000000 ICntrl=       600 IOpCl=  0 I1Cent=           0 NGrid=           0
         NMat0=    1 NMatS0=    300 NMatT0=    0 NMatD0=    1 NMtDS0=    0 NMtDT0=    0
 Petite list used in FoFCou.
 UHF open shell SCF:
 Using DIIS extrapolation, IDIIS=  1040.
 NGot=   134217728 LenX=   134189263 LenY=   134188197
 Requested convergence on RMS density matrix=1.00D-08 within 128 cycles.
 Requested convergence on MAX density matrix=1.00D-06.
 Requested convergence on             energy=1.00D-06.
 No special actions if energy rises.
 Integral accuracy reduced to 1.0D-05 until final iterations.

 Cycle   1  Pass 0  IDiag  1:
 E= -76.2803735903519    
 DIIS: error= 8.61D-03 at cycle   1 NSaved=   1.
 NSaved= 1 IEnMin= 1 EnMin= -76.2803735903519     IErMin= 1 ErrMin= 8.61D-03
 ErrMax= 8.61D-03  0.00D+00 EMaxC= 1.00D-01 BMatC= 5.66D-03 BMatP= 5.66D-03
 IDIUse=3 WtCom= 9.14D-01 WtEn= 8.61D-02
 Coeff-Com:  0.100D+01
 Coeff-En:   0.100D+01
 Coeff:      0.100D+01
 Gap=     0.124 Goal=   None    Shift=    0.000
 Gap=     0.292 Goal=   None    Shift=    0.000
 GapD=    0.124 DampG=1.000 DampE=1.000 DampFc=1.0000 IDamp=-1.
 RMSDP=3.33D-03 MaxDP=2.33D-02              OVMax= 2.36D-02

 Cycle   2  Pass 0  IDiag  1:
 E= -76.2820507844683     Delta-E=       -0.001677194116 Rises=F Damp=F
 DIIS: error= 3.39D-03 at cycle   2 NSaved=   2.
 NSaved= 2 IEnMin= 2 EnMin= -76.2820507844683     IErMin= 2 ErrMin= 3.39D-03
 ErrMax= 3.39D-03  0.00D+00 EMaxC= 1.00D-01 BMatC= 1.29D-03 BMatP= 5.66D-03
 IDIUse=3 WtCom= 9.66D-01 WtEn= 3.39D-02
 Coeff-Com:  0.243D+00 0.757D+00
 Coeff-En:   0.000D+00 0.100D+01
 Coeff:      0.235D+00 0.765D+00
 Gap=     0.118 Goal=   None    Shift=    0.000
 Gap=     0.290 Goal=   None    Shift=    0.000
 RMSDP=1.34D-03 MaxDP=1.66D-02 DE=-1.68D-03 OVMax= 8.01D-03

 Cycle   3  Pass 0  IDiag  1:
 E= -76.2821331173406     Delta-E=       -0.000082332872 Rises=F Damp=F
 DIIS: error= 2.66D-03 at cycle   3 NSaved=   3.
 NSaved= 3 IEnMin= 3 EnMin= -76.2821331173406     IErMin= 3 ErrMin= 2.66D-03
 ErrMax= 2.66D-03  0.00D+00 EMaxC= 1.00D-01 BMatC= 8.94D-04 BMatP= 1.29D-03
 IDIUse=3 WtCom= 9.73D-01 WtEn= 2.66D-02
 Coeff-Com: -0.648D-04 0.453D+00 0.548D+00
 Coeff-En:   0.000D+00 0.405D+00 0.595D+00
 Coeff:     -0.630D-04 0.451D+00 0.549D+00
 Gap=     0.118 Goal=   None    Shift=    0.000
 Gap=     0.286 Goal=   None    Shift=    0.000
 RMSDP=4.48D-04 MaxDP=3.90D-03 DE=-8.23D-05 OVMax= 5.14D-03

 Cycle   4  Pass 0  IDiag  1:
 E= -76.2822967079699     Delta-E=       -0.000163590629 Rises=F Damp=F
 DIIS: error= 4.39D-04 at cycle   4 NSaved=   4.
 NSaved= 4 IEnMin= 4 EnMin= -76.2822967079699     IErMin= 4 ErrMin= 4.39D-04
 ErrMax= 4.39D-04  0.00D+00 EMaxC= 1.00D-01 BMatC= 1.36D-05 BMatP= 8.94D-04
 IDIUse=3 WtCom= 9.96D-01 WtEn= 4.39D-03
 Coeff-Com: -0.152D-01 0.875D-01 0.177D+00 0.750D+00
 Coeff-En:   0.000D+00 0.000D+00 0.000D+00 0.100D+01
 Coeff:     -0.151D-01 0.871D-01 0.177D+00 0.751D+00
 Gap=     0.118 Goal=   None    Shift=    0.000
 Gap=     0.286 Goal=   None    Shift=    0.000
 RMSDP=6.47D-05 MaxDP=4.45D-04 DE=-1.64D-04 OVMax= 6.25D-04

 Cycle   5  Pass 0  IDiag  1:
 E= -76.2822994347556     Delta-E=       -0.000002726786 Rises=F Damp=F
 DIIS: error= 4.00D-05 at cycle   5 NSaved=   5.
 NSaved= 5 IEnMin= 5 EnMin= -76.2822994347556     IErMin= 5 ErrMin= 4.00D-05
 ErrMax= 4.00D-05  0.00D+00 EMaxC= 1.00D-01 BMatC= 1.34D-07 BMatP= 1.36D-05
 IDIUse=1 WtCom= 1.00D+00 WtEn= 0.00D+00
 Coeff-Com:  0.167D-02-0.271D-01-0.364D-01-0.112D+00 0.117D+01
 Coeff:      0.167D-02-0.271D-01-0.364D-01-0.112D+00 0.117D+01
 Gap=     0.118 Goal=   None    Shift=    0.000
 Gap=     0.286 Goal=   None    Shift=    0.000
 RMSDP=2.36D-05 MaxDP=1.90D-04 DE=-2.73D-06 OVMax= 2.66D-04

 Cycle   6  Pass 0  IDiag  1:
 E= -76.2822995039987     Delta-E=       -0.000000069243 Rises=F Damp=F
 DIIS: error= 5.71D-06 at cycle   6 NSaved=   6.
 NSaved= 6 IEnMin= 6 EnMin= -76.2822995039987     IErMin= 6 ErrMin= 5.71D-06
 ErrMax= 5.71D-06  0.00D+00 EMaxC= 1.00D-01 BMatC= 2.09D-09 BMatP= 1.34D-07
 IDIUse=1 WtCom= 1.00D+00 WtEn= 0.00D+00
 Coeff-Com:  0.262D-03-0.380D-03-0.166D-02-0.255D-02-0.650D-01 0.107D+01
 Coeff:      0.262D-03-0.380D-03-0.166D-02-0.255D-02-0.650D-01 0.107D+01
 Gap=     0.118 Goal=   None    Shift=    0.000
 Gap=     0.286 Goal=   None    Shift=    0.000
 RMSDP=1.66D-06 MaxDP=1.94D-05 DE=-6.92D-08 OVMax= 2.84D-05

 Initial convergence to 1.0D-05 achieved.  Increase integral accuracy.
 Cycle   7  Pass 1  IDiag  1:
 E= -76.2823018086953     Delta-E=       -0.000002304697 Rises=F Damp=F
 DIIS: error= 1.23D-06 at cycle   1 NSaved=   1.
 NSaved= 1 IEnMin= 1 EnMin= -76.2823018086953     IErMin= 1 ErrMin= 1.23D-06
 ErrMax= 1.23D-06  0.00D+00 EMaxC= 1.00D-01 BMatC= 1.22D-10 BMatP= 1.22D-10
 IDIUse=1 WtCom= 1.00D+00 WtEn= 0.00D+00
 Coeff-Com:  0.100D+01
 Coeff:      0.100D+01
 Gap=     0.118 Goal=   None    Shift=    0.000
 Gap=     0.286 Goal=   None    Shift=    0.000
 RMSDP=1.66D-06 MaxDP=1.94D-05 DE=-2.30D-06 OVMax= 5.08D-06

 Cycle   8  Pass 1  IDiag  1:
 E= -76.2823018087746     Delta-E=       -0.000000000079 Rises=F Damp=F
 DIIS: error= 5.26D-07 at cycle   2 NSaved=   2.
 NSaved= 2 IEnMin= 2 EnMin= -76.2823018087746     IErMin= 2 ErrMin= 5.26D-07
 ErrMax= 5.26D-07  0.00D+00 EMaxC= 1.00D-01 BMatC= 1.67D-11 BMatP= 1.22D-10
 IDIUse=1 WtCom= 1.00D+00 WtEn= 0.00D+00
 Coeff-Com: -0.364D+00 0.136D+01
 Coeff:     -0.364D+00 0.136D+01
 Gap=     0.118 Goal=   None    Shift=    0.000
 Gap=     0.286 Goal=   None    Shift=    0.000
 RMSDP=1.88D-07 MaxDP=1.69D-06 DE=-7.93D-11 OVMax= 2.61D-06

 Cycle   9  Pass 1  IDiag  1:
 E= -76.2823018087874     Delta-E=       -0.000000000013 Rises=F Damp=F
 DIIS: error= 1.75D-07 at cycle   3 NSaved=   3.
 NSaved= 3 IEnMin= 3 EnMin= -76.2823018087874     IErMin= 3 ErrMin= 1.75D-07
 ErrMax= 1.75D-07  0.00D+00 EMaxC= 1.00D-01 BMatC= 1.35D-12 BMatP= 1.67D-11
 IDIUse=1 WtCom= 1.00D+00 WtEn= 0.00D+00
 Coeff-Com: -0.131D+00 0.241D+00 0.891D+00
 Coeff:     -0.131D+00 0.241D+00 0.891D+00
 Gap=     0.118 Goal=   None    Shift=    0.000
 Gap=     0.286 Goal=   None    Shift=    0.000
 RMSDP=3.90D-08 MaxDP=3.54D-07 DE=-1.28D-11 OVMax= 5.97D-07

 Cycle  10  Pass 1  IDiag  1:
 E= -76.2823018087880     Delta-E=       -0.000000000001 Rises=F Damp=F
 DIIS: error= 2.66D-08 at cycle   4 NSaved=   4.
 NSaved= 4 IEnMin= 4 EnMin= -76.2823018087880     IErMin= 4 ErrMin= 2.66D-08
 ErrMax= 2.66D-08  0.00D+00 EMaxC= 1.00D-01 BMatC= 4.19D-14 BMatP= 1.35D-12
 IDIUse=1 WtCom= 1.00D+00 WtEn= 0.00D+00
 Coeff-Com:  0.649D-02-0.549D-01 0.412D-01 0.101D+01
 Coeff:      0.649D-02-0.549D-01 0.412D-01 0.101D+01
 Gap=     0.118 Goal=   None    Shift=    0.000
 Gap=     0.286 Goal=   None    Shift=    0.000
 RMSDP=1.11D-08 MaxDP=1.05D-07 DE=-5.97D-13 OVMax= 1.39D-07

 Cycle  11  Pass 1  IDiag  1:
 E= -76.2823018087881     Delta-E=       -0.000000000000 Rises=F Damp=F
 DIIS: error= 8.17D-09 at cycle   5 NSaved=   5.
 NSaved= 5 IEnMin= 5 EnMin= -76.2823018087881     IErMin= 5 ErrMin= 8.17D-09
 ErrMax= 8.17D-09  0.00D+00 EMaxC= 1.00D-01 BMatC= 7.18D-15 BMatP= 4.19D-14
 IDIUse=1 WtCom= 1.00D+00 WtEn= 0.00D+00
 Coeff-Com:  0.500D-02-0.244D-01-0.231D-02 0.363D+00 0.658D+00
 Coeff:      0.500D-02-0.244D-01-0.231D-02 0.363D+00 0.658D+00
 Gap=     0.118 Goal=   None    Shift=    0.000
 Gap=     0.286 Goal=   None    Shift=    0.000
 RMSDP=1.84D-09 MaxDP=1.71D-08 DE=-7.11D-14 OVMax= 2.48D-08

 SCF Done:  E(UB3LYP) =  -76.2823018088     A.U. after   11 cycles
            NFock= 11  Conv=0.18D-08     -V/T= 1.9994
 <Sx>= 0.0000 <Sy>= 0.0000 <Sz>= 0.5000 <S**2>= 0.7511 S= 0.5006
 <L.S>= 0.000000000000E+00
 KE= 7.632978477701D+01 PE=-2.016426115453D+02 EE= 4.037149080879D+01
 Annihilation of the first spin contaminant:
 S**2 before annihilation     0.7511,   after     0.7500
 Leave Link  502 at Tue Jun  8 12:35:52 2021, MaxMem=   134217728 cpu:               2.4 elap:               0.2
 (Enter /APL/ISV/x86_64/gaussian/16/C.01/g16/l701.exe)
 ... and contract with generalized density number  0.
 Compute integral first derivatives.
 Leave Link  701 at Tue Jun  8 12:35:53 2021, MaxMem=   134217728 cpu:               1.5 elap:               0.1
 (Enter /APL/ISV/x86_64/gaussian/16/C.01/g16/l702.exe)
 L702 exits ... SP integral derivatives will be done elsewhere.
 Leave Link  702 at Tue Jun  8 12:35:53 2021, MaxMem=   134217728 cpu:               0.3 elap:               0.0
 (Enter /APL/ISV/x86_64/gaussian/16/C.01/g16/l703.exe)
 Integral derivatives from FoFJK, PRISM(SPDF).
 Compute integral first derivatives, UseDBF=F ICtDFT=           0.
 Calling FoFJK, ICntrl=      2127 FMM=F ISym2X=1 I1Cent= 0 IOpClX= 1 NMat=1 NMatS=1 NMatT=0.
 FoFJK:  IHMeth= 1 ICntrl=    2127 DoSepK=F KAlg= 0 I1Cent=           0 FoldK=F
 IRaf=         0 NMat=       1 IRICut=       1 DoRegI=T DoRafI=F ISym2E= 1 IDoP0=0 IntGTp=1.
 FoFCou: FMM=F IPFlag=           0 FMFlag=      100000 FMFlg1=         800
         NFxFlg=           0 DoJE=F BraDBF=F KetDBF=F FulRan=T
         wScrn=  0.000000 ICntrl=      2127 IOpCl=  1 I1Cent=           0 NGrid=           0
         NMat0=    1 NMatS0=      1 NMatT0=    0 NMatD0=    1 NMtDS0=    0 NMtDT0=    0
 Petite list used in FoFCou.
 Leave Link  703 at Tue Jun  8 12:35:53 2021, MaxMem=   134217728 cpu:               1.9 elap:               0.1
 (Enter /APL/ISV/x86_64/gaussian/16/C.01/g16/l716.exe)
 Dipole        = 1.01462978D-16 0.00000000D+00 3.49205557D-01
 ***** Axes restored to original set *****
 -------------------------------------------------------------------
 Center     Atomic                   Forces (Hartrees/Bohr)
 Number     Number              X              Y              Z
 -------------------------------------------------------------------
      1        8          -0.016296571   -0.016296571    0.000000000
      2        1           0.015794530    0.000502041   -0.000000000
      3        1           0.000502041    0.015794530   -0.000000000
 -------------------------------------------------------------------
 Cartesian Forces:  Max     0.016296571 RMS     0.010700960
 Leave Link  716 at Tue Jun  8 12:35:53 2021, MaxMem=   134217728 cpu:               0.5 elap:               0.1
 (Enter /APL/ISV/x86_64/gaussian/16/C.01/g16/l103.exe)

 GradGradGradGradGradGradGradGradGradGradGradGradGradGradGradGradGradGrad
 Berny optimization.
 Using GEDIIS/GDIIS optimizer.
 FormGI is forming the generalized inverse of G from B-inverse, IUseBI=4.
 Internal  Forces:  Max     0.015691711 RMS     0.012979033
 Search for a local minimum.
 Step number   2 out of a maximum of   20
 All quantities printed in internal units (Hartrees-Bohrs-Radians)
 RMS Force = .12979D-01 SwitMx=.10000D-02 MixMth= 1
 Mixed Optimization -- RFO/linear search
 Update second derivatives using D2CorX and points    1    2
 DE= -6.20D-03 DEPred=-4.96D-03 R= 1.25D+00
 TightC=F SS=  1.41D+00  RLast= 1.40D-01 DXNew= 5.0454D-01 4.1859D-01
 Trust test= 1.25D+00 RLast= 1.40D-01 DXMaxT set to 4.19D-01
 The second derivative matrix:
                          R1        R2        A1
           R1           0.46051
           R2          -0.07576   0.46051
           A1           0.01605   0.01605   0.15692
 ITU=  1  0
 Use linear search instead of GDIIS.
     Eigenvalues ---    0.15468   0.38699   0.53627
 RFO step:  Lambda=-8.51130876D-05 EMin= 1.54680637D-01
 Quartic linear search produced a step of  0.64392.
 Iteration  1 RMS(Cart)=  0.03744648 RMS(Int)=  0.00107652
 Iteration  2 RMS(Cart)=  0.00131881 RMS(Int)=  0.00000060
 Iteration  3 RMS(Cart)=  0.00000040 RMS(Int)=  0.00000000
 ITry= 1 IFail=0 DXMaxC= 3.67D-02 DCOld= 1.00D+10 DXMaxT= 4.19D-01 DXLimC= 3.00D+00 Rises=F
 ClnCor:  largest displacement from symmetrization is 9.83D-15 for atom     3.
 Variable       Old X    -DE/DX   Delta X   Delta X   Delta X     New X
                                 (Linear)    (Quad)   (Total)
    R1        1.92319   0.01569   0.05954  -0.00153   0.05801   1.98121
    R2        1.92319   0.01569   0.05954  -0.00153   0.05801   1.98121
    A1        1.74422  -0.00359  -0.03135  -0.02273  -0.05408   1.69014
         Item               Value     Threshold  Converged?
 Maximum Force            0.015692     0.000450     NO 
 RMS     Force            0.012979     0.000300     NO 
 Maximum Displacement     0.036704     0.001800     NO 
 RMS     Displacement     0.037499     0.001200     NO 
 Predicted change in Energy=-5.913547D-04
 Lowest energy point so far.  Saving SCF results.
 GradGradGradGradGradGradGradGradGradGradGradGradGradGradGradGradGradGrad

 Leave Link  103 at Tue Jun  8 12:35:53 2021, MaxMem=   134217728 cpu:               0.2 elap:               0.0
 (Enter /APL/ISV/x86_64/gaussian/16/C.01/g16/l202.exe)
                          Input orientation:                          
 ---------------------------------------------------------------------
 Center     Atomic      Atomic             Coordinates (Angstroms)
 Number     Number       Type             X           Y           Z
 ---------------------------------------------------------------------
      1          8           0        0.171994    0.171994    0.000000
      2          1           0        1.218537    0.109470   -0.000000
      3          1           0        0.109470    1.218537    0.000000
 ---------------------------------------------------------------------
                    Distance matrix (angstroms):
                    1          2          3
     1  O    0.000000
     2  H    1.048409   0.000000
     3  H    1.048409   1.568458   0.000000
 Stoichiometry    H2O(1-,2)
 Framework group  C2V[C2(O),SGV(H2)]
 Deg. of freedom     2
 Full point group                 C2V     NOp   4
 RotChk:  IX=0 Diff= 6.57D-16
 Largest Abelian subgroup         C2V     NOp   4
 Largest concise Abelian subgroup C2      NOp   2
                         Standard orientation:                         
 ---------------------------------------------------------------------
 Center     Atomic      Atomic             Coordinates (Angstroms)
 Number     Number       Type             X           Y           Z
 ---------------------------------------------------------------------
      1          8           0        0.000000   -0.000000    0.139161
      2          1           0       -0.000000    0.784229   -0.556645
      3          1           0       -0.000000   -0.784229   -0.556645
 ---------------------------------------------------------------------
 Rotational constants (GHZ):         583.1373461         407.6772452         239.9357346
 Leave Link  202 at Tue Jun  8 12:35:53 2021, MaxMem=   134217728 cpu:               0.2 elap:               0.0
 (Enter /APL/ISV/x86_64/gaussian/16/C.01/g16/l301.exe)
 Standard basis: CC-pVDZ (5D, 7F)
 Ernie: Thresh=  0.10000D-02 Tol=  0.10000D-05 Strict=F.
 Ernie:  2 primitive shells out of 32 were deleted.
 There are    12 symmetry adapted cartesian basis functions of A1  symmetry.
 There are     2 symmetry adapted cartesian basis functions of A2  symmetry.
 There are     4 symmetry adapted cartesian basis functions of B1  symmetry.
 There are     7 symmetry adapted cartesian basis functions of B2  symmetry.
 There are    11 symmetry adapted basis functions of A1  symmetry.
 There are     2 symmetry adapted basis functions of A2  symmetry.
 There are     4 symmetry adapted basis functions of B1  symmetry.
 There are     7 symmetry adapted basis functions of B2  symmetry.
    24 basis functions,    47 primitive gaussians,    25 cartesian basis functions
     6 alpha electrons        5 beta electrons
       nuclear repulsion energy         8.4132777704 Hartrees.
 IExCor=  402 DFT=T Ex+Corr=B3LYP ExCW=0 ScaHFX=  0.200000
 ScaDFX=  0.800000  0.720000  1.000000  0.810000 ScalE2=  1.000000  1.000000
 IRadAn=      5 IRanWt=     -1 IRanGd=            0 ICorTp=0 IEmpDi=  4
 NAtoms=    3 NActive=    3 NUniq=    2 SFac= 2.25D+00 NAtFMM=   60 NAOKFM=F Big=F
 Integral buffers will be    131072 words long.
 Raffenetti 2 integral format.
 Two-electron integral symmetry is turned on.
 Leave Link  301 at Tue Jun  8 12:35:53 2021, MaxMem=   134217728 cpu:               0.9 elap:               0.1
 (Enter /APL/ISV/x86_64/gaussian/16/C.01/g16/l302.exe)
 NPDir=0 NMtPBC=     1 NCelOv=     1 NCel=       1 NClECP=     1 NCelD=      1
         NCelK=      1 NCelE2=     1 NClLst=     1 CellRange=     0.0.
 One-electron integrals computed using PRISM.
 One-electron integral symmetry used in STVInt
 NBasis=    24 RedAO= T EigKep=  4.06D-02  NBF=    11     2     4     7
 NBsUse=    24 1.00D-06 EigRej= -1.00D+00 NBFU=    11     2     4     7
 Precomputing XC quadrature grid using
 IXCGrd= 4 IRadAn=           5 IRanWt=          -1 IRanGd=           0 AccXCQ= 0.00D+00.
 Generated NRdTot=       0 NPtTot=           0 NUsed=           0 NTot=          32
 NSgBfM=    25    25    25    25    25 MxSgAt=     3 MxSgA2=     3.
 Leave Link  302 at Tue Jun  8 12:35:53 2021, MaxMem=   134217728 cpu:               1.7 elap:               0.1
 (Enter /APL/ISV/x86_64/gaussian/16/C.01/g16/l303.exe)
 DipDrv:  MaxL=1.
 Leave Link  303 at Tue Jun  8 12:35:53 2021, MaxMem=   134217728 cpu:               0.5 elap:               0.1
 (Enter /APL/ISV/x86_64/gaussian/16/C.01/g16/l401.exe)
 Initial guess from the checkpoint file:  "water_anion.chk"
 B after Tr=    -0.000000   -0.000000    0.000000
         Rot=    1.000000   -0.000000    0.000000   -0.000000 Ang=   0.00 deg.
 Guess basis will be translated and rotated to current coordinates.
 JPrj=2 DoOrth=T DoCkMO=T.
 Initial guess orbital symmetries:
 Alpha Orbitals:
       Occupied  (A1) (A1) (B2) (A1) (B1) (A1)
       Virtual   (B2) (B2) (A1) (A1) (B1) (B2) (A1) (A2) (B1) (A1)
                 (B2) (B2) (A1) (B1) (A2) (A1) (A1) (B2)
 Beta  Orbitals:
       Occupied  (A1) (A1) (B2) (A1) (B1)
       Virtual   (A1) (B2) (B2) (A1) (A1) (B1) (B2) (A1) (A2) (B1)
                 (A1) (B2) (B2) (A1) (A2) (B1) (A1) (A1) (B2)
 The electronic state of the initial guess is 2-A1.
 Initial guess <Sx>= 0.0000 <Sy>= 0.0000 <Sz>= 0.5000 <S**2>= 0.7512 S= 0.5006
 Generating alternative initial guess.
 ExpMin= 1.22D-01 ExpMax= 1.17D+04 ExpMxC= 4.01D+02 IAcc=3 IRadAn=         5 AccDes= 0.00D+00
 Harris functional with IExCor=  402 and IRadAn=       5 diagonalized for initial guess.
 HarFok:  IExCor=  402 AccDes= 0.00D+00 IRadAn=         5 IDoV= 1 UseB2=F ITyADJ=14
 ICtDFT=  3500011 ScaDFX=  1.000000  1.000000  1.000000  1.000000
 FoFCou: FMM=F IPFlag=           0 FMFlag=      100000 FMFlg1=           0
         NFxFlg=           0 DoJE=T BraDBF=F KetDBF=T FulRan=T
         wScrn=  0.000000 ICntrl=       500 IOpCl=  0 I1Cent=   200000004 NGrid=           0
         NMat0=    1 NMatS0=      1 NMatT0=    0 NMatD0=    1 NMtDS0=    0 NMtDT0=    0
 Petite list used in FoFCou.
 Harris En= -76.4804971480124    
 Leave Link  401 at Tue Jun  8 12:35:53 2021, MaxMem=   134217728 cpu:               2.6 elap:               0.2
 (Enter /APL/ISV/x86_64/gaussian/16/C.01/g16/l502.exe)
 Keep R1 and R2 ints in memory in symmetry-blocked form, NReq=13860511.
 FoFCou: FMM=F IPFlag=           0 FMFlag=           0 FMFlg1=           0
         NFxFlg=           0 DoJE=F BraDBF=F KetDBF=F FulRan=T
         wScrn=  0.000000 ICntrl=       600 IOpCl=  0 I1Cent=           0 NGrid=           0
         NMat0=    1 NMatS0=    300 NMatT0=    0 NMatD0=    1 NMtDS0=    0 NMtDT0=    0
 Petite list used in FoFCou.
 UHF open shell SCF:
 Using DIIS extrapolation, IDIIS=  1040.
 NGot=   134217728 LenX=   134189263 LenY=   134188197
 Requested convergence on RMS density matrix=1.00D-08 within 128 cycles.
 Requested convergence on MAX density matrix=1.00D-06.
 Requested convergence on             energy=1.00D-06.
 No special actions if energy rises.
 Integral accuracy reduced to 1.0D-05 until final iterations.

 Cycle   1  Pass 0  IDiag  1:
 E= -76.2823935929176    
 DIIS: error= 4.92D-03 at cycle   1 NSaved=   1.
 NSaved= 1 IEnMin= 1 EnMin= -76.2823935929176     IErMin= 1 ErrMin= 4.92D-03
 ErrMax= 4.92D-03  0.00D+00 EMaxC= 1.00D-01 BMatC= 2.26D-03 BMatP= 2.26D-03
 IDIUse=3 WtCom= 9.51D-01 WtEn= 4.92D-02
 Coeff-Com:  0.100D+01
 Coeff-En:   0.100D+01
 Coeff:      0.100D+01
 Gap=     0.122 Goal=   None    Shift=    0.000
 Gap=     0.281 Goal=   None    Shift=    0.000
 GapD=    0.122 DampG=1.000 DampE=1.000 DampFc=1.0000 IDamp=-1.
 RMSDP=2.15D-03 MaxDP=1.53D-02              OVMax= 1.59D-02

 Cycle   2  Pass 0  IDiag  1:
 E= -76.2831075843702     Delta-E=       -0.000713991453 Rises=F Damp=F
 DIIS: error= 2.18D-03 at cycle   2 NSaved=   2.
 NSaved= 2 IEnMin= 2 EnMin= -76.2831075843702     IErMin= 2 ErrMin= 2.18D-03
 ErrMax= 2.18D-03  0.00D+00 EMaxC= 1.00D-01 BMatC= 5.69D-04 BMatP= 2.26D-03
 IDIUse=3 WtCom= 9.78D-01 WtEn= 2.18D-02
 Coeff-Com:  0.256D+00 0.744D+00
 Coeff-En:   0.000D+00 0.100D+01
 Coeff:      0.251D+00 0.749D+00
 Gap=     0.119 Goal=   None    Shift=    0.000
 Gap=     0.282 Goal=   None    Shift=    0.000
 RMSDP=8.69D-04 MaxDP=1.05D-02 DE=-7.14D-04 OVMax= 5.58D-03

 Cycle   3  Pass 0  IDiag  1:
 E= -76.2831430316195     Delta-E=       -0.000035447249 Rises=F Damp=F
 DIIS: error= 1.67D-03 at cycle   3 NSaved=   3.
 NSaved= 3 IEnMin= 3 EnMin= -76.2831430316195     IErMin= 3 ErrMin= 1.67D-03
 ErrMax= 1.67D-03  0.00D+00 EMaxC= 1.00D-01 BMatC= 3.94D-04 BMatP= 5.69D-04
 IDIUse=3 WtCom= 9.83D-01 WtEn= 1.67D-02
 Coeff-Com: -0.704D-03 0.452D+00 0.548D+00
 Coeff-En:   0.000D+00 0.409D+00 0.591D+00
 Coeff:     -0.692D-03 0.452D+00 0.549D+00
 Gap=     0.119 Goal=   None    Shift=    0.000
 Gap=     0.279 Goal=   None    Shift=    0.000
 RMSDP=3.02D-04 MaxDP=2.64D-03 DE=-3.54D-05 OVMax= 3.65D-03

 Cycle   4  Pass 0  IDiag  1:
 E= -76.2832162423650     Delta-E=       -0.000073210745 Rises=F Damp=F
 DIIS: error= 3.14D-04 at cycle   4 NSaved=   4.
 NSaved= 4 IEnMin= 4 EnMin= -76.2832162423650     IErMin= 4 ErrMin= 3.14D-04
 ErrMax= 3.14D-04  0.00D+00 EMaxC= 1.00D-01 BMatC= 6.62D-06 BMatP= 3.94D-04
 IDIUse=3 WtCom= 9.97D-01 WtEn= 3.14D-03
 Coeff-Com: -0.161D-01 0.904D-01 0.185D+00 0.741D+00
 Coeff-En:   0.000D+00 0.000D+00 0.000D+00 0.100D+01
 Coeff:     -0.160D-01 0.902D-01 0.184D+00 0.742D+00
 Gap=     0.119 Goal=   None    Shift=    0.000
 Gap=     0.280 Goal=   None    Shift=    0.000
 RMSDP=4.39D-05 MaxDP=3.09D-04 DE=-7.32D-05 OVMax= 4.51D-04

 Cycle   5  Pass 0  IDiag  1:
 E= -76.2832175991080     Delta-E=       -0.000001356743 Rises=F Damp=F
 DIIS: error= 2.52D-05 at cycle   5 NSaved=   5.
 NSaved= 5 IEnMin= 5 EnMin= -76.2832175991080     IErMin= 5 ErrMin= 2.52D-05
 ErrMax= 2.52D-05  0.00D+00 EMaxC= 1.00D-01 BMatC= 6.62D-08 BMatP= 6.62D-06
 IDIUse=1 WtCom= 1.00D+00 WtEn= 0.00D+00
 Coeff-Com:  0.188D-02-0.278D-01-0.382D-01-0.122D+00 0.119D+01
 Coeff:      0.188D-02-0.278D-01-0.382D-01-0.122D+00 0.119D+01
 Gap=     0.119 Goal=   None    Shift=    0.000
 Gap=     0.280 Goal=   None    Shift=    0.000
 RMSDP=1.66D-05 MaxDP=1.34D-04 DE=-1.36D-06 OVMax= 1.94D-04

 Cycle   6  Pass 0  IDiag  1:
 E= -76.2832176352942     Delta-E=       -0.000000036186 Rises=F Damp=F
 DIIS: error= 4.64D-06 at cycle   6 NSaved=   6.
 NSaved= 6 IEnMin= 6 EnMin= -76.2832176352942     IErMin= 6 ErrMin= 4.64D-06
 ErrMax= 4.64D-06  0.00D+00 EMaxC= 1.00D-01 BMatC= 1.36D-09 BMatP= 6.62D-08
 IDIUse=1 WtCom= 1.00D+00 WtEn= 0.00D+00
 Coeff-Com:  0.311D-03-0.510D-03-0.218D-02-0.247D-02-0.745D-01 0.108D+01
 Coeff:      0.311D-03-0.510D-03-0.218D-02-0.247D-02-0.745D-01 0.108D+01
 Gap=     0.119 Goal=   None    Shift=    0.000
 Gap=     0.280 Goal=   None    Shift=    0.000
 RMSDP=1.36D-06 MaxDP=1.64D-05 DE=-3.62D-08 OVMax= 2.48D-05

 Initial convergence to 1.0D-05 achieved.  Increase integral accuracy.
 Cycle   7  Pass 1  IDiag  1:
 E= -76.2832196572777     Delta-E=       -0.000002021984 Rises=F Damp=F
 DIIS: error= 1.11D-06 at cycle   1 NSaved=   1.
 NSaved= 1 IEnMin= 1 EnMin= -76.2832196572777     IErMin= 1 ErrMin= 1.11D-06
 ErrMax= 1.11D-06  0.00D+00 EMaxC= 1.00D-01 BMatC= 8.99D-11 BMatP= 8.99D-11
 IDIUse=1 WtCom= 1.00D+00 WtEn= 0.00D+00
 Coeff-Com:  0.100D+01
 Coeff:      0.100D+01
 Gap=     0.119 Goal=   None    Shift=    0.000
 Gap=     0.280 Goal=   None    Shift=    0.000
 RMSDP=1.36D-06 MaxDP=1.64D-05 DE=-2.02D-06 OVMax= 5.56D-06

 Cycle   8  Pass 1  IDiag  1:
 E= -76.2832196573396     Delta-E=       -0.000000000062 Rises=F Damp=F
 DIIS: error= 6.14D-07 at cycle   2 NSaved=   2.
 NSaved= 2 IEnMin= 2 EnMin= -76.2832196573396     IErMin= 2 ErrMin= 6.14D-07
 ErrMax= 6.14D-07  0.00D+00 EMaxC= 1.00D-01 BMatC= 1.76D-11 BMatP= 8.99D-11
 IDIUse=1 WtCom= 1.00D+00 WtEn= 0.00D+00
 Coeff-Com: -0.168D+00 0.117D+01
 Coeff:     -0.168D+00 0.117D+01
 Gap=     0.119 Goal=   None    Shift=    0.000
 Gap=     0.280 Goal=   None    Shift=    0.000
 RMSDP=1.88D-07 MaxDP=1.92D-06 DE=-6.18D-11 OVMax= 2.94D-06

 Cycle   9  Pass 1  IDiag  1:
 E= -76.2832196573472     Delta-E=       -0.000000000008 Rises=F Damp=F
 DIIS: error= 4.80D-07 at cycle   3 NSaved=   3.
 NSaved= 3 IEnMin= 3 EnMin= -76.2832196573472     IErMin= 3 ErrMin= 4.80D-07
 ErrMax= 4.80D-07  0.00D+00 EMaxC= 1.00D-01 BMatC= 2.28D-11 BMatP= 1.76D-11
 IDIUse=1 WtCom= 1.00D+00 WtEn= 0.00D+00
 Coeff-Com: -0.306D+00 0.774D+00 0.532D+00
 Coeff:     -0.306D+00 0.774D+00 0.532D+00
 Gap=     0.119 Goal=   None    Shift=    0.000
 Gap=     0.280 Goal=   None    Shift=    0.000
 RMSDP=8.71D-08 MaxDP=9.97D-07 DE=-7.67D-12 OVMax= 1.55D-06

 Cycle  10  Pass 1  IDiag  1:
 E= -76.2832196573522     Delta-E=       -0.000000000005 Rises=F Damp=F
 DIIS: error= 7.57D-08 at cycle   4 NSaved=   4.
 NSaved= 4 IEnMin= 4 EnMin= -76.2832196573522     IErMin= 4 ErrMin= 7.57D-08
 ErrMax= 7.57D-08  0.00D+00 EMaxC= 1.00D-01 BMatC= 3.53D-13 BMatP= 1.76D-11
 IDIUse=1 WtCom= 1.00D+00 WtEn= 0.00D+00
 Coeff-Com: -0.518D-01 0.410D-01 0.101D+00 0.909D+00
 Coeff:     -0.518D-01 0.410D-01 0.101D+00 0.909D+00
 Gap=     0.119 Goal=   None    Shift=    0.000
 Gap=     0.280 Goal=   None    Shift=    0.000
 RMSDP=2.00D-08 MaxDP=1.85D-07 DE=-4.95D-12 OVMax= 2.76D-07

 Cycle  11  Pass 1  IDiag  1:
 E= -76.2832196573524     Delta-E=       -0.000000000000 Rises=F Damp=F
 DIIS: error= 1.50D-08 at cycle   5 NSaved=   5.
 NSaved= 5 IEnMin= 5 EnMin= -76.2832196573524     IErMin= 5 ErrMin= 1.50D-08
 ErrMax= 1.50D-08  0.00D+00 EMaxC= 1.00D-01 BMatC= 1.69D-14 BMatP= 3.53D-13
 IDIUse=1 WtCom= 1.00D+00 WtEn= 0.00D+00
 Coeff-Com:  0.823D-02-0.395D-01-0.199D-01 0.145D+00 0.907D+00
 Coeff:      0.823D-02-0.395D-01-0.199D-01 0.145D+00 0.907D+00
 Gap=     0.119 Goal=   None    Shift=    0.000
 Gap=     0.280 Goal=   None    Shift=    0.000
 RMSDP=6.05D-09 MaxDP=5.63D-08 DE=-1.85D-13 OVMax= 5.78D-08

 SCF Done:  E(UB3LYP) =  -76.2832196574     A.U. after   11 cycles
            NFock= 11  Conv=0.60D-08     -V/T= 2.0003
 <Sx>= 0.0000 <Sy>= 0.0000 <Sz>= 0.5000 <S**2>= 0.7513 S= 0.5006
 <L.S>= 0.000000000000E+00
 KE= 7.625706739684D+01 PE=-2.011342716701D+02 EE= 4.018070684543D+01
 Annihilation of the first spin contaminant:
 S**2 before annihilation     0.7513,   after     0.7500
 Leave Link  502 at Tue Jun  8 12:35:54 2021, MaxMem=   134217728 cpu:               2.4 elap:               0.2
 (Enter /APL/ISV/x86_64/gaussian/16/C.01/g16/l701.exe)
 ... and contract with generalized density number  0.
 Compute integral first derivatives.
 Leave Link  701 at Tue Jun  8 12:35:54 2021, MaxMem=   134217728 cpu:               1.3 elap:               0.1
 (Enter /APL/ISV/x86_64/gaussian/16/C.01/g16/l702.exe)
 L702 exits ... SP integral derivatives will be done elsewhere.
 Leave Link  702 at Tue Jun  8 12:35:54 2021, MaxMem=   134217728 cpu:               0.4 elap:               0.0
 (Enter /APL/ISV/x86_64/gaussian/16/C.01/g16/l703.exe)
 Integral derivatives from FoFJK, PRISM(SPDF).
 Compute integral first derivatives, UseDBF=F ICtDFT=           0.
 Calling FoFJK, ICntrl=      2127 FMM=F ISym2X=1 I1Cent= 0 IOpClX= 1 NMat=1 NMatS=1 NMatT=0.
 FoFJK:  IHMeth= 1 ICntrl=    2127 DoSepK=F KAlg= 0 I1Cent=           0 FoldK=F
 IRaf=         0 NMat=       1 IRICut=       1 DoRegI=T DoRafI=F ISym2E= 1 IDoP0=0 IntGTp=1.
 FoFCou: FMM=F IPFlag=           0 FMFlag=      100000 FMFlg1=         800
         NFxFlg=           0 DoJE=F BraDBF=F KetDBF=F FulRan=T
         wScrn=  0.000000 ICntrl=      2127 IOpCl=  1 I1Cent=           0 NGrid=           0
         NMat0=    1 NMatS0=      1 NMatT0=    0 NMatD0=    1 NMtDS0=    0 NMtDT0=    0
 Petite list used in FoFCou.
 Leave Link  703 at Tue Jun  8 12:35:54 2021, MaxMem=   134217728 cpu:               1.9 elap:               0.1
 (Enter /APL/ISV/x86_64/gaussian/16/C.01/g16/l716.exe)
 Dipole        = 9.64730482D-17 2.22044605D-16 3.69087250D-01
 ***** Axes restored to original set *****
 -------------------------------------------------------------------
 Center     Atomic                   Forces (Hartrees/Bohr)
 Number     Number              X              Y              Z
 -------------------------------------------------------------------
      1        8           0.000968183    0.000968183    0.000000000
      2        1          -0.000094078   -0.000874106   -0.000000000
      3        1          -0.000874106   -0.000094078   -0.000000000
 -------------------------------------------------------------------
 Cartesian Forces:  Max     0.000968183 RMS     0.000616494
 Leave Link  716 at Tue Jun  8 12:35:54 2021, MaxMem=   134217728 cpu:               0.4 elap:               0.0
 (Enter /APL/ISV/x86_64/gaussian/16/C.01/g16/l103.exe)

 GradGradGradGradGradGradGradGradGradGradGradGradGradGradGradGradGradGrad
 Berny optimization.
 Using GEDIIS/GDIIS optimizer.
 FormGI is forming the generalized inverse of G from B-inverse, IUseBI=4.
 Internal  Forces:  Max     0.001739816 RMS     0.001005062
 Search for a local minimum.
 Step number   3 out of a maximum of   20
 All quantities printed in internal units (Hartrees-Bohrs-Radians)
 RMS Force = .10051D-02 SwitMx=.10000D-02 MixMth= 1
 Mixed Optimization -- RFO/linear search
 Update second derivatives using D2CorX and points    1    2    3
 DE= -9.18D-04 DEPred=-5.91D-04 R= 1.55D+00
 TightC=F SS=  1.41D+00  RLast= 9.83D-02 DXNew= 7.0398D-01 2.9478D-01
 Trust test= 1.55D+00 RLast= 9.83D-02 DXMaxT set to 4.19D-01
 The second derivative matrix:
                          R1        R2        A1
           R1           0.41596
           R2          -0.12030   0.41596
           A1           0.02622   0.02622   0.15487
 ITU=  1  1  0
 Use linear search instead of GDIIS.
     Eigenvalues ---    0.14570   0.30483   0.53627
 RFO step:  Lambda=-1.64747890D-05 EMin= 1.45697991D-01
 Quartic linear search produced a step of -0.05236.
 Iteration  1 RMS(Cart)=  0.00733608 RMS(Int)=  0.00003031
 Iteration  2 RMS(Cart)=  0.00002831 RMS(Int)=  0.00000000
 Iteration  3 RMS(Cart)=  0.00000000 RMS(Int)=  0.00000000
 ITry= 1 IFail=0 DXMaxC= 7.21D-03 DCOld= 1.00D+10 DXMaxT= 4.19D-01 DXLimC= 3.00D+00 Rises=F
 ClnCor:  largest displacement from symmetrization is 5.34D-15 for atom     3.
 Variable       Old X    -DE/DX   Delta X   Delta X   Delta X     New X
                                 (Linear)    (Quad)   (Total)
    R1        1.98121  -0.00004  -0.00304   0.00158  -0.00146   1.97975
    R2        1.98121  -0.00004  -0.00304   0.00158  -0.00146   1.97975
    A1        1.69014   0.00174   0.00283   0.00932   0.01215   1.70229
         Item               Value     Threshold  Converged?
 Maximum Force            0.001740     0.000450     NO 
 RMS     Force            0.001005     0.000300     NO 
 Maximum Displacement     0.007209     0.001800     NO 
 RMS     Displacement     0.007321     0.001200     NO 
 Predicted change in Energy=-1.013002D-05
 Lowest energy point so far.  Saving SCF results.
 GradGradGradGradGradGradGradGradGradGradGradGradGradGradGradGradGradGrad

 Leave Link  103 at Tue Jun  8 12:35:54 2021, MaxMem=   134217728 cpu:               0.1 elap:               0.0
 (Enter /APL/ISV/x86_64/gaussian/16/C.01/g16/l202.exe)
                          Input orientation:                          
 ---------------------------------------------------------------------
 Center     Atomic      Atomic             Coordinates (Angstroms)
 Number     Number       Type             X           Y           Z
 ---------------------------------------------------------------------
      1          8           0        0.174486    0.174486    0.000000
      2          1           0        1.219860    0.105655   -0.000000
      3          1           0        0.105655    1.219860    0.000000
 ---------------------------------------------------------------------
                    Distance matrix (angstroms):
                    1          2          3
     1  O    0.000000
     2  H    1.047637   0.000000
     3  H    1.047637   1.575723   0.000000
 Stoichiometry    H2O(1-,2)
 Framework group  C2V[C2(O),SGV(H2)]
 Deg. of freedom     2
 Full point group                 C2V     NOp   4
 RotChk:  IX=0 Diff= 9.97D-16
 Largest Abelian subgroup         C2V     NOp   4
 Largest concise Abelian subgroup C2      NOp   2
                         Standard orientation:                         
 ---------------------------------------------------------------------
 Center     Atomic      Atomic             Coordinates (Angstroms)
 Number     Number       Type             X           Y           Z
 ---------------------------------------------------------------------
      1          8           0        0.000000    0.000000    0.138104
      2          1           0       -0.000000    0.787862   -0.552416
      3          1           0       -0.000000   -0.787862   -0.552416
 ---------------------------------------------------------------------
 Rotational constants (GHZ):         592.0993969         403.9262994         240.1188234
 Leave Link  202 at Tue Jun  8 12:35:54 2021, MaxMem=   134217728 cpu:               0.2 elap:               0.0
 (Enter /APL/ISV/x86_64/gaussian/16/C.01/g16/l301.exe)
 Standard basis: CC-pVDZ (5D, 7F)
 Ernie: Thresh=  0.10000D-02 Tol=  0.10000D-05 Strict=F.
 Ernie:  2 primitive shells out of 32 were deleted.
 There are    12 symmetry adapted cartesian basis functions of A1  symmetry.
 There are     2 symmetry adapted cartesian basis functions of A2  symmetry.
 There are     4 symmetry adapted cartesian basis functions of B1  symmetry.
 There are     7 symmetry adapted cartesian basis functions of B2  symmetry.
 There are    11 symmetry adapted basis functions of A1  symmetry.
 There are     2 symmetry adapted basis functions of A2  symmetry.
 There are     4 symmetry adapted basis functions of B1  symmetry.
 There are     7 symmetry adapted basis functions of B2  symmetry.
    24 basis functions,    47 primitive gaussians,    25 cartesian basis functions
     6 alpha electrons        5 beta electrons
       nuclear repulsion energy         8.4176686040 Hartrees.
 IExCor=  402 DFT=T Ex+Corr=B3LYP ExCW=0 ScaHFX=  0.200000
 ScaDFX=  0.800000  0.720000  1.000000  0.810000 ScalE2=  1.000000  1.000000
 IRadAn=      5 IRanWt=     -1 IRanGd=            0 ICorTp=0 IEmpDi=  4
 NAtoms=    3 NActive=    3 NUniq=    2 SFac= 2.25D+00 NAtFMM=   60 NAOKFM=F Big=F
 Integral buffers will be    131072 words long.
 Raffenetti 2 integral format.
 Two-electron integral symmetry is turned on.
 Leave Link  301 at Tue Jun  8 12:35:54 2021, MaxMem=   134217728 cpu:               0.8 elap:               0.1
 (Enter /APL/ISV/x86_64/gaussian/16/C.01/g16/l302.exe)
 NPDir=0 NMtPBC=     1 NCelOv=     1 NCel=       1 NClECP=     1 NCelD=      1
         NCelK=      1 NCelE2=     1 NClLst=     1 CellRange=     0.0.
 One-electron integrals computed using PRISM.
 One-electron integral symmetry used in STVInt
 NBasis=    24 RedAO= T EigKep=  4.07D-02  NBF=    11     2     4     7
 NBsUse=    24 1.00D-06 EigRej= -1.00D+00 NBFU=    11     2     4     7
 Precomputing XC quadrature grid using
 IXCGrd= 4 IRadAn=           5 IRanWt=          -1 IRanGd=           0 AccXCQ= 0.00D+00.
 Generated NRdTot=       0 NPtTot=           0 NUsed=           0 NTot=          32
 NSgBfM=    25    25    25    25    25 MxSgAt=     3 MxSgA2=     3.
 Leave Link  302 at Tue Jun  8 12:35:54 2021, MaxMem=   134217728 cpu:               1.8 elap:               0.1
 (Enter /APL/ISV/x86_64/gaussian/16/C.01/g16/l303.exe)
 DipDrv:  MaxL=1.
 Leave Link  303 at Tue Jun  8 12:35:54 2021, MaxMem=   134217728 cpu:               0.3 elap:               0.0
 (Enter /APL/ISV/x86_64/gaussian/16/C.01/g16/l401.exe)
 Initial guess from the checkpoint file:  "water_anion.chk"
 B after Tr=    -0.000000    0.000000    0.000000
         Rot=    1.000000    0.000000   -0.000000   -0.000000 Ang=   0.00 deg.
 Guess basis will be translated and rotated to current coordinates.
 JPrj=2 DoOrth=T DoCkMO=T.
 Initial guess orbital symmetries:
 Alpha Orbitals:
       Occupied  (A1) (A1) (B2) (A1) (B1) (A1)
       Virtual   (B2) (B2) (A1) (A1) (B1) (B2) (A1) (A2) (B1) (A1)
                 (B2) (B2) (A1) (A2) (B1) (A1) (A1) (B2)
 Beta  Orbitals:
       Occupied  (A1) (A1) (B2) (A1) (B1)
       Virtual   (A1) (B2) (B2) (A1) (A1) (B1) (B2) (A1) (A2) (B1)
                 (A1) (B2) (B2) (A1) (A2) (B1) (A1) (A1) (B2)
 The electronic state of the initial guess is 2-A1.
 Initial guess <Sx>= 0.0000 <Sy>= 0.0000 <Sz>= 0.5000 <S**2>= 0.7513 S= 0.5006
 Leave Link  401 at Tue Jun  8 12:35:54 2021, MaxMem=   134217728 cpu:               1.6 elap:               0.1
 (Enter /APL/ISV/x86_64/gaussian/16/C.01/g16/l502.exe)
 Keep R1 and R2 ints in memory in symmetry-blocked form, NReq=13860511.
 FoFCou: FMM=F IPFlag=           0 FMFlag=           0 FMFlg1=           0
         NFxFlg=           0 DoJE=F BraDBF=F KetDBF=F FulRan=T
         wScrn=  0.000000 ICntrl=       600 IOpCl=  0 I1Cent=           0 NGrid=           0
         NMat0=    1 NMatS0=    300 NMatT0=    0 NMatD0=    1 NMtDS0=    0 NMtDT0=    0
 Petite list used in FoFCou.
 UHF open shell SCF:
 Using DIIS extrapolation, IDIIS=  1040.
 NGot=   134217728 LenX=   134189263 LenY=   134188197
 Requested convergence on RMS density matrix=1.00D-08 within 128 cycles.
 Requested convergence on MAX density matrix=1.00D-06.
 Requested convergence on             energy=1.00D-06.
 No special actions if energy rises.

 Cycle   1  Pass 1  IDiag  1:
 E= -76.2832256169943    
 DIIS: error= 4.15D-04 at cycle   1 NSaved=   1.
 NSaved= 1 IEnMin= 1 EnMin= -76.2832256169943     IErMin= 1 ErrMin= 4.15D-04
 ErrMax= 4.15D-04  0.00D+00 EMaxC= 1.00D-01 BMatC= 2.03D-05 BMatP= 2.03D-05
 IDIUse=3 WtCom= 9.96D-01 WtEn= 4.15D-03
 Coeff-Com:  0.100D+01
 Coeff-En:   0.100D+01
 Coeff:      0.100D+01
 Gap=     0.119 Goal=   None    Shift=    0.000
 Gap=     0.280 Goal=   None    Shift=    0.000
 RMSDP=1.70D-04 MaxDP=1.24D-03              OVMax= 1.38D-03

 Cycle   2  Pass 1  IDiag  1:
 E= -76.2832324159458     Delta-E=       -0.000006798952 Rises=F Damp=F
 DIIS: error= 1.63D-04 at cycle   2 NSaved=   2.
 NSaved= 2 IEnMin= 2 EnMin= -76.2832324159458     IErMin= 2 ErrMin= 1.63D-04
 ErrMax= 1.63D-04  0.00D+00 EMaxC= 1.00D-01 BMatC= 3.23D-06 BMatP= 2.03D-05
 IDIUse=3 WtCom= 9.98D-01 WtEn= 1.63D-03
 Coeff-Com:  0.178D+00 0.822D+00
 Coeff-En:   0.000D+00 0.100D+01
 Coeff:      0.178D+00 0.822D+00
 Gap=     0.119 Goal=   None    Shift=    0.000
 Gap=     0.280 Goal=   None    Shift=    0.000
 RMSDP=6.06D-05 MaxDP=7.27D-04 DE=-6.80D-06 OVMax= 4.67D-04

 Cycle   3  Pass 1  IDiag  1:
 E= -76.2832324114492     Delta-E=        0.000000004497 Rises=F Damp=F
 DIIS: error= 1.49D-04 at cycle   3 NSaved=   3.
 NSaved= 3 IEnMin= 2 EnMin= -76.2832324159458     IErMin= 3 ErrMin= 1.49D-04
 ErrMax= 1.49D-04  0.00D+00 EMaxC= 1.00D-01 BMatC= 3.20D-06 BMatP= 3.23D-06
 IDIUse=3 WtCom= 9.99D-01 WtEn= 1.49D-03
 Coeff-Com: -0.517D-02 0.500D+00 0.505D+00
 Coeff-En:   0.000D+00 0.502D+00 0.498D+00
 Coeff:     -0.516D-02 0.500D+00 0.505D+00
 Gap=     0.119 Goal=   None    Shift=    0.000
 Gap=     0.280 Goal=   None    Shift=    0.000
 RMSDP=2.92D-05 MaxDP=2.90D-04 DE= 4.50D-09 OVMax= 2.95D-04

 Cycle   4  Pass 1  IDiag  1:
 E= -76.2832329925437     Delta-E=       -0.000000581094 Rises=F Damp=F
 DIIS: error= 2.31D-05 at cycle   4 NSaved=   4.
 NSaved= 4 IEnMin= 4 EnMin= -76.2832329925437     IErMin= 4 ErrMin= 2.31D-05
 ErrMax= 2.31D-05  0.00D+00 EMaxC= 1.00D-01 BMatC= 3.62D-08 BMatP= 3.20D-06
 IDIUse=1 WtCom= 1.00D+00 WtEn= 0.00D+00
 Coeff-Com: -0.708D-02 0.122D+00 0.175D+00 0.710D+00
 Coeff:     -0.708D-02 0.122D+00 0.175D+00 0.710D+00
 Gap=     0.119 Goal=   None    Shift=    0.000
 Gap=     0.280 Goal=   None    Shift=    0.000
 RMSDP=2.53D-06 MaxDP=1.83D-05 DE=-5.81D-07 OVMax= 3.48D-05

 Cycle   5  Pass 1  IDiag  1:
 E= -76.2832329994837     Delta-E=       -0.000000006940 Rises=F Damp=F
 DIIS: error= 1.35D-06 at cycle   5 NSaved=   5.
 NSaved= 5 IEnMin= 5 EnMin= -76.2832329994837     IErMin= 5 ErrMin= 1.35D-06
 ErrMax= 1.35D-06  0.00D+00 EMaxC= 1.00D-01 BMatC= 1.18D-10 BMatP= 3.62D-08
 IDIUse=1 WtCom= 1.00D+00 WtEn= 0.00D+00
 Coeff-Com: -0.366D-03-0.461D-02 0.569D-03 0.163D-01 0.988D+00
 Coeff:     -0.366D-03-0.461D-02 0.569D-03 0.163D-01 0.988D+00
 Gap=     0.119 Goal=   None    Shift=    0.000
 Gap=     0.280 Goal=   None    Shift=    0.000
 RMSDP=4.23D-07 MaxDP=3.33D-06 DE=-6.94D-09 OVMax= 5.57D-06

 Cycle   6  Pass 1  IDiag  1:
[...]
 IDIUse=3 WtCom= 9.98D-01 WtEn= 1.88D-03
 Coeff-Com:  0.100D+01
 Coeff-En:   0.100D+01
 Coeff:      0.100D+01
 Gap=     0.119 Goal=   None    Shift=    0.000
 Gap=     0.280 Goal=   None    Shift=    0.000
 RMSDP=7.49D-05 MaxDP=6.33D-04              OVMax= 4.18D-04

 Cycle   2  Pass 1  IDiag  1:
 E= -76.2832345590661     Delta-E=       -0.000001108796 Rises=F Damp=F
 DIIS: error= 3.18D-05 at cycle   2 NSaved=   2.
 NSaved= 2 IEnMin= 2 EnMin= -76.2832345590661     IErMin= 2 ErrMin= 3.18D-05
 ErrMax= 3.18D-05  0.00D+00 EMaxC= 1.00D-01 BMatC= 1.06D-07 BMatP= 3.29D-06
 IDIUse=1 WtCom= 1.00D+00 WtEn= 0.00D+00
 Coeff-Com:  0.161D-01 0.984D+00
 Coeff:      0.161D-01 0.984D+00
 Gap=     0.119 Goal=   None    Shift=    0.000
 Gap=     0.279 Goal=   None    Shift=    0.000
 RMSDP=9.77D-06 MaxDP=8.36D-05 DE=-1.11D-06 OVMax= 1.09D-04

 Cycle   3  Pass 1  IDiag  1:
 E= -76.2832345513643     Delta-E=        0.000000007702 Rises=F Damp=F
 DIIS: error= 3.54D-05 at cycle   3 NSaved=   3.
 NSaved= 3 IEnMin= 2 EnMin= -76.2832345590661     IErMin= 2 ErrMin= 3.18D-05
 ErrMax= 3.54D-05  0.00D+00 EMaxC= 1.00D-01 BMatC= 1.65D-07 BMatP= 1.06D-07
 IDIUse=1 WtCom= 1.00D+00 WtEn= 0.00D+00
 Coeff-Com: -0.172D-01 0.568D+00 0.449D+00
 Coeff:     -0.172D-01 0.568D+00 0.449D+00
 Gap=     0.119 Goal=   None    Shift=    0.000
 Gap=     0.280 Goal=   None    Shift=    0.000
 RMSDP=7.34D-06 MaxDP=8.12D-05 DE= 7.70D-09 OVMax= 6.50D-05

 Cycle   4  Pass 1  IDiag  1:
 E= -76.2832345809273     Delta-E=       -0.000000029563 Rises=F Damp=F
 DIIS: error= 5.64D-06 at cycle   4 NSaved=   4.
 NSaved= 4 IEnMin= 4 EnMin= -76.2832345809273     IErMin= 4 ErrMin= 5.64D-06
 ErrMax= 5.64D-06  0.00D+00 EMaxC= 1.00D-01 BMatC= 2.40D-09 BMatP= 1.06D-07
 IDIUse=1 WtCom= 1.00D+00 WtEn= 0.00D+00
 Coeff-Com: -0.401D-02 0.810D-01 0.137D+00 0.786D+00
 Coeff:     -0.401D-02 0.810D-01 0.137D+00 0.786D+00
 Gap=     0.119 Goal=   None    Shift=    0.000
 Gap=     0.280 Goal=   None    Shift=    0.000
 RMSDP=9.38D-07 MaxDP=7.48D-06 DE=-2.96D-08 OVMax= 1.09D-05

 Cycle   5  Pass 1  IDiag  1:
 E= -76.2832345814369     Delta-E=       -0.000000000510 Rises=F Damp=F
 DIIS: error= 1.02D-06 at cycle   5 NSaved=   5.
 NSaved= 5 IEnMin= 5 EnMin= -76.2832345814369     IErMin= 5 ErrMin= 1.02D-06
 ErrMax= 1.02D-06  0.00D+00 EMaxC= 1.00D-01 BMatC= 5.61D-11 BMatP= 2.40D-09
 IDIUse=1 WtCom= 1.00D+00 WtEn= 0.00D+00
 Coeff-Com: -0.225D-05-0.218D-01-0.109D-01 0.973D-01 0.935D+00
 Coeff:     -0.225D-05-0.218D-01-0.109D-01 0.973D-01 0.935D+00
 Gap=     0.119 Goal=   None    Shift=    0.000
 Gap=     0.280 Goal=   None    Shift=    0.000
 RMSDP=2.16D-07 MaxDP=1.52D-06 DE=-5.10D-10 OVMax= 1.87D-06

 Cycle   6  Pass 1  IDiag  1:
 E= -76.2832345814526     Delta-E=       -0.000000000016 Rises=F Damp=F
 DIIS: error= 1.06D-07 at cycle   6 NSaved=   6.
 NSaved= 6 IEnMin= 6 EnMin= -76.2832345814526     IErMin= 6 ErrMin= 1.06D-07
 ErrMax= 1.06D-07  0.00D+00 EMaxC= 1.00D-01 BMatC= 1.04D-12 BMatP= 5.61D-11
 IDIUse=1 WtCom= 1.00D+00 WtEn= 0.00D+00
 Coeff-Com:  0.182D-03-0.678D-03-0.490D-02-0.351D-01-0.976D-01 0.114D+01
 Coeff:      0.182D-03-0.678D-03-0.490D-02-0.351D-01-0.976D-01 0.114D+01
 Gap=     0.119 Goal=   None    Shift=    0.000
 Gap=     0.280 Goal=   None    Shift=    0.000
 RMSDP=6.10D-08 MaxDP=5.35D-07 DE=-1.57D-11 OVMax= 4.34D-07

 Cycle   7  Pass 1  IDiag  1:
 E= -76.2832345814530     Delta-E=       -0.000000000000 Rises=F Damp=F
 DIIS: error= 1.23D-08 at cycle   7 NSaved=   7.
 NSaved= 7 IEnMin= 7 EnMin= -76.2832345814530     IErMin= 7 ErrMin= 1.23D-08
 ErrMax= 1.23D-08  0.00D+00 EMaxC= 1.00D-01 BMatC= 1.20D-14 BMatP= 1.04D-12
 IDIUse=1 WtCom= 1.00D+00 WtEn= 0.00D+00
 Coeff-Com: -0.163D-04 0.240D-03 0.640D-03 0.147D-02 0.393D-02-0.966D-01
 Coeff-Com:  0.109D+01
 Coeff:     -0.163D-04 0.240D-03 0.640D-03 0.147D-02 0.393D-02-0.966D-01
 Coeff:      0.109D+01
 Gap=     0.119 Goal=   None    Shift=    0.000
 Gap=     0.280 Goal=   None    Shift=    0.000
 RMSDP=3.52D-09 MaxDP=2.85D-08 DE=-3.98D-13 OVMax= 4.38D-08

 SCF Done:  E(UB3LYP) =  -76.2832345815     A.U. after    7 cycles
            NFock=  7  Conv=0.35D-08     -V/T= 2.0003
 <Sx>= 0.0000 <Sy>= 0.0000 <Sz>= 0.5000 <S**2>= 0.7513 S= 0.5006
 <L.S>= 0.000000000000E+00
 KE= 7.625757149244D+01 PE=-2.011369928023D+02 EE= 4.018251641741D+01
 Annihilation of the first spin contaminant:
 S**2 before annihilation     0.7513,   after     0.7500
 Leave Link  502 at Tue Jun  8 12:35:56 2021, MaxMem=   134217728 cpu:               2.4 elap:               0.2
 (Enter /APL/ISV/x86_64/gaussian/16/C.01/g16/l701.exe)
 ... and contract with generalized density number  0.
 Compute integral first derivatives.
 Leave Link  701 at Tue Jun  8 12:35:56 2021, MaxMem=   134217728 cpu:               1.4 elap:               0.1
 (Enter /APL/ISV/x86_64/gaussian/16/C.01/g16/l702.exe)
 L702 exits ... SP integral derivatives will be done elsewhere.
 Leave Link  702 at Tue Jun  8 12:35:56 2021, MaxMem=   134217728 cpu:               0.3 elap:               0.0
 (Enter /APL/ISV/x86_64/gaussian/16/C.01/g16/l703.exe)
 Integral derivatives from FoFJK, PRISM(SPDF).
 Compute integral first derivatives, UseDBF=F ICtDFT=           0.
 Calling FoFJK, ICntrl=      2127 FMM=F ISym2X=1 I1Cent= 0 IOpClX= 1 NMat=1 NMatS=1 NMatT=0.
 FoFJK:  IHMeth= 1 ICntrl=    2127 DoSepK=F KAlg= 0 I1Cent=           0 FoldK=F
 IRaf=         0 NMat=       1 IRICut=       1 DoRegI=T DoRafI=F ISym2E= 1 IDoP0=0 IntGTp=1.
 FoFCou: FMM=F IPFlag=           0 FMFlag=      100000 FMFlg1=         800
         NFxFlg=           0 DoJE=F BraDBF=F KetDBF=F FulRan=T
         wScrn=  0.000000 ICntrl=      2127 IOpCl=  1 I1Cent=           0 NGrid=           0
         NMat0=    1 NMatS0=      1 NMatT0=    0 NMatD0=    1 NMtDS0=    0 NMtDT0=    0
 Petite list used in FoFCou.
 Leave Link  703 at Tue Jun  8 12:35:56 2021, MaxMem=   134217728 cpu:               2.0 elap:               0.1
 (Enter /APL/ISV/x86_64/gaussian/16/C.01/g16/l716.exe)
 Dipole        = 9.71927568D-17 0.00000000D+00 3.62880902D-01
 ***** Axes restored to original set *****
 -------------------------------------------------------------------
 Center     Atomic                   Forces (Hartrees/Bohr)
 Number     Number              X              Y              Z
 -------------------------------------------------------------------
      1        8          -0.000065023   -0.000065023    0.000000000
      2        1           0.000082312   -0.000017290   -0.000000000
      3        1          -0.000017290    0.000082312   -0.000000000
 -------------------------------------------------------------------
 Cartesian Forces:  Max     0.000082312 RMS     0.000050116
 Leave Link  716 at Tue Jun  8 12:35:56 2021, MaxMem=   134217728 cpu:               0.4 elap:               0.0
 (Enter /APL/ISV/x86_64/gaussian/16/C.01/g16/l103.exe)

 GradGradGradGradGradGradGradGradGradGradGradGradGradGradGradGradGradGrad
 Berny optimization.
 Using GEDIIS/GDIIS optimizer.
 FormGI is forming the generalized inverse of G from B-inverse, IUseBI=4.
 Internal  Forces:  Max     0.000083299 RMS     0.000069304
 Search for a local minimum.
 Step number   5 out of a maximum of   20
 All quantities printed in internal units (Hartrees-Bohrs-Radians)
 RMS Force = .69304D-04 SwitMx=.10000D-02 MixMth= 2
 Mixed Optimization -- En-DIIS/RFO-DIIS
 Swapping is turned off.
 Update second derivatives using D2CorX and points    2    3    4    5
 DE= -1.58D-06 DEPred=-1.46D-06 R= 1.08D+00
 TightC=F SS=  1.41D+00  RLast= 4.98D-03 DXNew= 7.0398D-01 1.4933D-02
 Trust test= 1.08D+00 RLast= 4.98D-03 DXMaxT set to 4.19D-01
 The second derivative matrix:
                          R1        R2        A1
           R1           0.40022
           R2          -0.13604   0.40022
           A1          -0.00189  -0.00189   0.10174
 ITU=  1  1  1  1
     Eigenvalues ---    0.10169   0.26422   0.53627
 En-DIIS/RFO-DIIS/Sim-DIIS IScMMF=       -3 using points:     5    4
 RFO step:  Lambda=-5.83122929D-08.
 NNeg= 0 NGDIIS= 2 SimSw=  2.50D-01 Rises=F DC= -1.58D-06 SmlDif=  1.00D-05
 NRisDI= 0 DoIntr=F SqrtH=F CThrHd= 10.0 CDAdj=  3.0
 RMS Error=  0.2931701587D-03 NUsed= 2 OKEnD=F EnDIS=F
 InvSVX:  RCond= 6.19D-06 Info=           0 Equed=N FErr=  1.03D-15 BErr=  4.71D-17
 DidBck=F Rises=F RFO-DIIS coefs:    1.06651   -0.06651
 Iteration  1 RMS(Cart)=  0.00032210 RMS(Int)=  0.00000002
 Iteration  2 RMS(Cart)=  0.00000002 RMS(Int)=  0.00000000
 ITry= 1 IFail=0 DXMaxC= 2.86D-04 DCOld= 1.00D+10 DXMaxT= 4.19D-01 DXLimC= 3.00D+00 Rises=F
 ClnCor:  largest displacement from symmetrization is 1.02D-14 for atom     3.
 Variable       Old X    -DE/DX   Delta X   Delta X   Delta X     New X
                                 (Linear)    (Quad)   (Total)
    R1        1.98052   0.00008   0.00005   0.00027   0.00032   1.98084
    R2        1.98052   0.00008   0.00005   0.00027   0.00032   1.98084
    A1        1.70715   0.00002   0.00032  -0.00008   0.00024   1.70739
         Item               Value     Threshold  Converged?
 Maximum Force            0.000083     0.000450     YES
 RMS     Force            0.000069     0.000300     YES
 Maximum Displacement     0.000286     0.001800     YES
 RMS     Displacement     0.000322     0.001200     YES
 Predicted change in Energy=-2.915615D-08
 Optimization completed.
    -- Stationary point found.
                           ----------------------------
                           !   Optimized Parameters   !
                           ! (Angstroms and Degrees)  !
 --------------------------                            --------------------------
 ! Name  Definition              Value          Derivative Info.                !
 --------------------------------------------------------------------------------
 ! R1    R(1,2)                  1.048          -DE/DX =    0.0001              !
 ! R2    R(1,3)                  1.048          -DE/DX =    0.0001              !
 ! A1    A(2,1,3)               97.8124         -DE/DX =    0.0                 !
 --------------------------------------------------------------------------------
 Lowest energy point so far.  Saving SCF results.
 Largest change from initial coordinates is atom    3       0.075 Angstoms.
 GradGradGradGradGradGradGradGradGradGradGradGradGradGradGradGradGradGrad

 Leave Link  103 at Tue Jun  8 12:35:56 2021, MaxMem=   134217728 cpu:               0.1 elap:               0.0
 (Enter /APL/ISV/x86_64/gaussian/16/C.01/g16/l202.exe)
                          Input orientation:                          
 ---------------------------------------------------------------------
 Center     Atomic      Atomic             Coordinates (Angstroms)
 Number     Number       Type             X           Y           Z
 ---------------------------------------------------------------------
      1          8           0        0.175262    0.175262    0.000000
      2          1           0        1.220873    0.103865   -0.000000
      3          1           0        0.103865    1.220873    0.000000
 ---------------------------------------------------------------------
                    Distance matrix (angstroms):
                    1          2          3
     1  O    0.000000
     2  H    1.048047   0.000000
     3  H    1.048047   1.579689   0.000000
 Stoichiometry    H2O(1-,2)
 Framework group  C2V[C2(O),SGV(H2)]
 Deg. of freedom     2
 Full point group                 C2V     NOp   4
 RotChk:  IX=0 Diff= 8.94D-16
 Largest Abelian subgroup         C2V     NOp   4
 Largest concise Abelian subgroup C2      NOp   2
                         Standard orientation:                         
 ---------------------------------------------------------------------
 Center     Atomic      Atomic             Coordinates (Angstroms)
 Number     Number       Type             X           Y           Z
 ---------------------------------------------------------------------
      1          8           0        0.000000   -0.000000    0.137775
      2          1           0       -0.000000    0.789844   -0.551099
      3          1           0       -0.000000   -0.789844   -0.551099
 ---------------------------------------------------------------------
 Rotational constants (GHZ):         594.9323665         401.9009932         239.8634703
 Leave Link  202 at Tue Jun  8 12:35:56 2021, MaxMem=   134217728 cpu:               0.2 elap:               0.0
 (Enter /APL/ISV/x86_64/gaussian/16/C.01/g16/l601.exe)
 Copying SCF densities to generalized density rwf, IOpCl= 1 IROHF=0.

 **********************************************************************

            Population analysis using the SCF Density.

 **********************************************************************

 Orbital symmetries:
 Alpha Orbitals:
       Occupied  (A1) (A1) (B2) (A1) (B1) (A1)
       Virtual   (B2) (B2) (A1) (A1) (B1) (B2) (A1) (A2) (B1) (A1)
                 (B2) (B2) (A1) (A2) (B1) (A1) (A1) (B2)
 Beta  Orbitals:
       Occupied  (A1) (A1) (B2) (A1) (B1)
       Virtual   (A1) (B2) (B2) (A1) (A1) (B1) (B2) (A1) (A2) (B1)
                 (A1) (B2) (B2) (A1) (A2) (B1) (A1) (A1) (B2)
 The electronic state is 2-A1.
 Alpha  occ. eigenvalues --  -18.79848  -0.64395  -0.15278  -0.06866   0.02950
 Alpha  occ. eigenvalues --    0.22817
 Alpha virt. eigenvalues --    0.34725   0.79120   0.85762   1.20374   1.20932
 Alpha virt. eigenvalues --    1.28275   1.46612   1.55717   1.69858   1.89701
 Alpha virt. eigenvalues --    1.93257   2.25115   2.29381   3.18240   3.18616
 Alpha virt. eigenvalues --    3.33434   3.67993   3.97633
  Beta  occ. eigenvalues --  -18.79026  -0.62190  -0.14165  -0.05145   0.03845
  Beta virt. eigenvalues --    0.31798   0.37987   0.80425   0.88845   1.21740
  Beta virt. eigenvalues --    1.21984   1.29531   1.47920   1.57077   1.71206
  Beta virt. eigenvalues --    1.90950   1.94916   2.26793   2.31662   3.18837
  Beta virt. eigenvalues --    3.20342   3.35115   3.68992   3.99241
          Condensed to atoms (all electrons):
               1          2          3
     1  O    8.831364  -0.252324  -0.252324
     2  H   -0.252324   1.287534   0.301432
     3  H   -0.252324   0.301432   1.287534
          Atomic-Atomic Spin Densities.
               1          2          3
     1  O    1.173232  -0.565800  -0.565800
     2  H   -0.565800   0.689373   0.355610
     3  H   -0.565800   0.355610   0.689373
 Mulliken charges and spin densities:
               1          2
     1  O   -0.326717   0.041632
     2  H   -0.336642   0.479184
     3  H   -0.336642   0.479184
 Sum of Mulliken charges =  -1.00000   1.00000
 Mulliken charges and spin densities with hydrogens summed into heavy atoms:
               1          2
     1  O   -1.000000   1.000000
 Electronic spatial extent (au):  <R**2>=             32.3304
 Charge=             -1.0000 electrons
 Dipole moment (field-independent basis, Debye):
    X=              0.0000    Y=              0.0000    Z=              0.9224  Tot=              0.9224
 Quadrupole moment (field-independent basis, Debye-Ang):
   XX=            -10.6151   YY=            -11.5106   ZZ=            -11.7198
   XY=             -0.0000   XZ=             -0.0000   YZ=             -0.0000
 Traceless Quadrupole moment (field-independent basis, Debye-Ang):
   XX=              0.6667   YY=             -0.2287   ZZ=             -0.4380
   XY=             -0.0000   XZ=             -0.0000   YZ=             -0.0000
 Octapole moment (field-independent basis, Debye-Ang**2):
  XXX=              0.0000  YYY=             -0.0000  ZZZ=              6.5591  XYY=              0.0000
  XXY=              0.0000  XXZ=              1.8468  XZZ=              0.0000  YZZ=              0.0000
  YYZ=              2.8814  XYZ=              0.0000
 Hexadecapole moment (field-independent basis, Debye-Ang**3):
 XXXX=            -11.9047 YYYY=            -29.0126 ZZZZ=            -23.3306 XXXY=             -0.0000
 XXXZ=             -0.0000 YYYX=             -0.0000 YYYZ=             -0.0000 ZZZX=             -0.0000
 ZZZY=             -0.0000 XXYY=             -6.6719 XXZZ=             -5.8166 YYZZ=             -8.8278
 XXYZ=             -0.0000 YYXZ=             -0.0000 ZZXY=             -0.0000
 N-N= 8.413670311036D+00 E-N=-2.011369925027D+02  KE= 7.625757149244D+01
 Symmetry A1   KE= 6.857061097712D+01
 Symmetry A2   KE= 3.038322349321D-34
 Symmetry B1   KE= 4.464803799160D+00
 Symmetry B2   KE= 3.222156716160D+00
 Symmetry A1   SP= 1.000000000000D+00
 Symmetry A2   SP= 2.256949153579D-36
 Symmetry B1   SP= 5.639908165884D-16
 Symmetry B2   SP= 1.612821358478D-15
                          Isotropic Fermi Contact Couplings
        Atom                 a.u.       MegaHertz       Gauss      10(-4) cm-1
     1  O(17)              0.93801    -568.61587    -202.89628    -189.66984
     2  H(1)               0.00455      20.33966       7.25770       6.78458
     3  H(1)               0.00455      20.33966       7.25770       6.78458
 --------------------------------------------------------
       Center         ----  Spin Dipole Couplings  ----
                      3XX-RR        3YY-RR        3ZZ-RR
 --------------------------------------------------------
     1   Atom       -0.282303     -0.445918      0.728221
     2   Atom       -0.039260      0.051202     -0.011942
     3   Atom       -0.039260      0.051202     -0.011942
 --------------------------------------------------------
                        XY            XZ            YZ
 --------------------------------------------------------
     1   Atom        0.000000     -0.000000      0.000000
     2   Atom       -0.000000      0.000000     -0.040164
     3   Atom        0.000000      0.000000      0.040164
 --------------------------------------------------------


 ---------------------------------------------------------------------------------
              Anisotropic Spin Dipole Couplings in Principal Axis System
 ---------------------------------------------------------------------------------

       Atom             a.u.   MegaHertz   Gauss  10(-4) cm-1        Axes

              Baa    -0.4459    32.266    11.513    10.763 -0.0000  1.0000 -0.0000
     1 O(17)  Bbb    -0.2823    20.427     7.289     6.814  1.0000  0.0000  0.0000
              Bcc     0.7282   -52.694   -18.802   -17.577 -0.0000  0.0000  1.0000
 
              Baa    -0.0393   -20.947    -7.474    -6.987  1.0000  0.0000  0.0000
     2 H(1)   Bbb    -0.0315   -16.784    -5.989    -5.599 -0.0000  0.4370  0.8994
              Bcc     0.0707    37.731    13.463    12.586 -0.0000  0.8994 -0.4370
 
              Baa    -0.0393   -20.947    -7.474    -6.987  1.0000 -0.0000  0.0000
     3 H(1)   Bbb    -0.0315   -16.784    -5.989    -5.599 -0.0000 -0.4370  0.8994
              Bcc     0.0707    37.731    13.463    12.586  0.0000  0.8994  0.4370
 

 ---------------------------------------------------------------------------------

 No NMR shielding tensors so no spin-rotation constants.
 Leave Link  601 at Tue Jun  8 12:35:56 2021, MaxMem=   134217728 cpu:               2.2 elap:               0.2
 (Enter /APL/ISV/x86_64/gaussian/16/C.01/g16/l9999.exe)
 Unable to Open any file for archive entry.
 1\1\GINC-LEMON\FOpt\UB3LYP\CC-pVDZ\H2O1(1-,2)\YAGI\08-Jun-2021\0\\#P B
 3LYP/cc-pVDZ opt geom=checkpoint\\B3LYP/cc-pVDZ water -1\\-1,2\O,0.175
 2615773,0.1752615773,0.\H,1.2208734749,0.1038649477,0.\H,0.1038649477,
 1.2208734749,0.\\Version=ES64L-G16RevC.01\State=2-A1\HF=-76.2832346\S2
 =0.751298\S2-1=0.\S2A=0.750001\RMSD=3.518e-09\RMSF=5.012e-05\Dipole=-0
 .2565955,-0.2565955,0.\Quadrupole=-0.2478408,-0.2478408,0.4956816,-0.0
 777943,0.,0.\PG=C02V [C2(O1),SGV(H2)]\\@
 The archive entry for this job was punched.


 ABALONE: AN EXPRESSION OF DISBELIEF.
 Job cpu time:       0 days  0 hours  1 minutes  6.7 seconds.
 Elapsed time:       0 days  0 hours  0 minutes  5.7 seconds.
 File lengths (MBytes):  RWF=      6 Int=      0 D2E=      0 Chk=      1 Scr=      1
 Normal termination of Gaussian 16 at Tue Jun  8 12:35:56 2021.

real	0m6.041s
user	1m2.701s
sys	0m4.030s
