 Entering Gaussian System, Link 0=g16
 Initial command:
 /APL/ISV/x86_64/gaussian/16/C.01/g16/l1.exe "/scr/yagi/w3-b3lyp-dz.33152/Gau-33162.inp" -scrdir="/scr/yagi/w3-b3lyp-dz.33152/"
 Entering Link 1 = /APL/ISV/x86_64/gaussian/16/C.01/g16/l1.exe PID=     33163.
  
 Copyright (c) 1988-2019, Gaussian, Inc.  All Rights Reserved.
  
 This is part of the Gaussian(R) 16 program.  It is based on
 the Gaussian(R) 09 system (copyright 2009, Gaussian, Inc.),
 the Gaussian(R) 03 system (copyright 2003, Gaussian, Inc.),
 the Gaussian(R) 98 system (copyright 1998, Gaussian, Inc.),
 the Gaussian(R) 94 system (copyright 1995, Gaussian, Inc.),
 the Gaussian 92(TM) system (copyright 1992, Gaussian, Inc.),
 the Gaussian 90(TM) system (copyright 1990, Gaussian, Inc.),
 the Gaussian 88(TM) system (copyright 1988, Gaussian, Inc.),
 the Gaussian 86(TM) system (copyright 1986, Carnegie Mellon
 University), and the Gaussian 82(TM) system (copyright 1983,
 Carnegie Mellon University). Gaussian is a federally registered
 trademark of Gaussian, Inc.
  
 This software contains proprietary and confidential information,
 including trade secrets, belonging to Gaussian, Inc.
  
 This software is provided under written license and may be
 used, copied, transmitted, or stored only in accord with that
 written license.
  
 The following legend is applicable only to US Government
 contracts under FAR:
  
                    RESTRICTED RIGHTS LEGEND
  
 Use, reproduction and disclosure by the US Government is
 subject to restrictions as set forth in subparagraphs (a)
 and (c) of the Commercial Computer Software - Restricted
 Rights clause in FAR 52.227-19.
  
 Gaussian, Inc.
 340 Quinnipiac St., Bldg. 40, Wallingford CT 06492
  
  
 ---------------------------------------------------------------
 Warning -- This program may not be used in any manner that
 competes with the business of Gaussian, Inc. or will provide
 assistance to any competitor of Gaussian, Inc.  The licensee
 of this program is prohibited from giving any competitor of
 Gaussian, Inc. access to this program.  By using this program,
 the user acknowledges that Gaussian, Inc. is engaged in the
 business of creating and licensing software in the field of
 computational chemistry and represents and warrants to the
 licensee that it is not a competitor of Gaussian, Inc. and that
 it will not use this program in any manner prohibited above.
 ---------------------------------------------------------------
  

 Cite this work as:
 Gaussian 16, Revision C.01,
 M. J. Frisch, G. W. Trucks, H. B. Schlegel, G. E. Scuseria, 
 M. A. Robb, J. R. Cheeseman, G. Scalmani, V. Barone, 
 G. A. Petersson, H. Nakatsuji, X. Li, M. Caricato, A. V. Marenich, 
 J. Bloino, B. G. Janesko, R. Gomperts, B. Mennucci, H. P. Hratchian, 
 J. V. Ortiz, A. F. Izmaylov, J. L. Sonnenberg, D. Williams-Young, 
 F. Ding, F. Lipparini, F. Egidi, J. Goings, B. Peng, A. Petrone, 
 T. Henderson, D. Ranasinghe, V. G. Zakrzewski, J. Gao, N. Rega, 
 G. Zheng, W. Liang, M. Hada, M. Ehara, K. Toyota, R. Fukuda, 
 J. Hasegawa, M. Ishida, T. Nakajima, Y. Honda, O. Kitao, H. Nakai, 
 T. Vreven, K. Throssell, J. A. Montgomery, Jr., J. E. Peralta, 
 F. Ogliaro, M. J. Bearpark, J. J. Heyd, E. N. Brothers, K. N. Kudin, 
 V. N. Staroverov, T. A. Keith, R. Kobayashi, J. Normand, 
 K. Raghavachari, A. P. Rendell, J. C. Burant, S. S. Iyengar, 
 J. Tomasi, M. Cossi, J. M. Millam, M. Klene, C. Adamo, R. Cammi, 
 J. W. Ochterski, R. L. Martin, K. Morokuma, O. Farkas, 
 J. B. Foresman, and D. J. Fox, Gaussian, Inc., Wallingford CT, 2019.
 
 ******************************************
 Gaussian 16:  ES64L-G16RevC.01  3-Jul-2019
                18-Jun-2021 
 ******************************************
 %chk=w3-b3lyp-dz.chk
 %mem=1gb
 -------------------------
 #p b3lyp/cc-pvdz opt freq
 -------------------------
 1/18=20,19=15,26=3,38=1/1,3;
 2/9=110,12=2,17=6,18=5,40=1/2;
 3/5=16,11=2,25=1,30=1,71=1,74=-5/1,2,3;
 4//1;
 5/5=2,38=5/2;
 6/7=2,8=2,9=2,10=2,28=1/1;
 7//1,2,3,16;
 1/18=20,19=15,26=3/3(2);
 2/9=110/2;
 99//99;
 2/9=110/2;
 3/5=16,11=2,25=1,30=1,71=1,74=-5/1,2,3;
 4/5=5,16=3,69=1/1;
 5/5=2,38=5/2;
 7//1,2,3,16;
 1/18=20,19=15,26=3/3(-5);
 2/9=110/2;
 6/7=2,8=2,9=2,10=2,19=2,28=1/1;
 99/9=1/99;
 Leave Link    1 at Fri Jun 18 13:48:59 2021, MaxMem=   134217728 cpu:               0.0 elap:               0.0
 (Enter /APL/ISV/x86_64/gaussian/16/C.01/g16/l101.exe)
 -------------------------------
 (H2O)3 b3lyp/cc-pvdz (opt/freq)
 -------------------------------
 Symbolic Z-matrix:
 Charge =  0 Multiplicity = 1
 H                    -0.5784   -1.06189  -0.13806 
 O                    -1.47213  -0.65269  -0.09381 
 H                    -1.87384  -1.01733   0.70928 
 O                     1.31164  -0.9346   -0.10272 
 H                     1.19645   0.04216  -0.06138 
 H                     1.78831  -1.15841   0.71092 
 O                     0.16026   1.59576   0.11902 
 H                    -0.63172   1.01139   0.09616 
 H                     0.10106   2.11627  -0.6968 
 
 Add virtual bond connecting atoms H8         and O2         Dist= 3.54D+00.
 Add virtual bond connecting atoms H1         and O4         Dist= 3.58D+00.
 Add virtual bond connecting atoms O7         and H5         Dist= 3.55D+00.
 ITRead=  0  0  0  0  0  0  0  0  0
 MicOpt= -1 -1 -1 -1 -1 -1 -1 -1 -1
 NAtoms=      9 NQM=        9 NQMF=       0 NMMI=      0 NMMIF=      0
                NMic=       0 NMicF=      0.
                    Isotopes and Nuclear Properties:
 (Nuclear quadrupole moments (NQMom) in fm**2, nuclear magnetic moments (NMagM)
  in nuclear magnetons)

  Atom         1           2           3           4           5           6           7           8           9
 IAtWgt=           1          16           1          16           1           1          16           1           1
 AtmWgt=   1.0078250  15.9949146   1.0078250  15.9949146   1.0078250   1.0078250  15.9949146   1.0078250   1.0078250
 NucSpn=           1           0           1           0           1           1           0           1           1
 AtZEff=  -0.0000000  -0.0000000  -0.0000000  -0.0000000  -0.0000000  -0.0000000  -0.0000000  -0.0000000  -0.0000000
 NQMom=    0.0000000   0.0000000   0.0000000   0.0000000   0.0000000   0.0000000   0.0000000   0.0000000   0.0000000
 NMagM=    2.7928460   0.0000000   2.7928460   0.0000000   2.7928460   2.7928460   0.0000000   2.7928460   2.7928460
 AtZNuc=   1.0000000   8.0000000   1.0000000   8.0000000   1.0000000   1.0000000   8.0000000   1.0000000   1.0000000
 Leave Link  101 at Fri Jun 18 13:48:59 2021, MaxMem=   134217728 cpu:               0.1 elap:               0.1
 (Enter /APL/ISV/x86_64/gaussian/16/C.01/g16/l103.exe)

 GradGradGradGradGradGradGradGradGradGradGradGradGradGradGradGradGradGrad
 Berny optimization.
 Initialization pass.
                           ----------------------------
                           !    Initial Parameters    !
                           ! (Angstroms and Degrees)  !
 --------------------------                            --------------------------
 ! Name  Definition              Value          Derivative Info.                !
 --------------------------------------------------------------------------------
 ! R1    R(1,2)                  0.9839         estimate D2E/DX2                !
 ! R2    R(1,4)                  1.8946         estimate D2E/DX2                !
 ! R3    R(2,3)                  0.9692         estimate D2E/DX2                !
 ! R4    R(2,8)                  1.8739         estimate D2E/DX2                !
 ! R5    R(4,5)                  0.9844         estimate D2E/DX2                !
 ! R6    R(4,6)                  0.9692         estimate D2E/DX2                !
 ! R7    R(5,7)                  1.8761         estimate D2E/DX2                !
 ! R8    R(7,8)                  0.9845         estimate D2E/DX2                !
 ! R9    R(7,9)                  0.9695         estimate D2E/DX2                !
 ! A1    A(2,1,4)              151.3204         estimate D2E/DX2                !
 ! A2    A(1,2,3)              104.9082         estimate D2E/DX2                !
 ! A3    A(1,2,8)               88.081          estimate D2E/DX2                !
 ! A4    A(3,2,8)              115.8489         estimate D2E/DX2                !
 ! A5    A(1,4,5)               87.1753         estimate D2E/DX2                !
 ! A6    A(1,4,6)              119.3918         estimate D2E/DX2                !
 ! A7    A(5,4,6)              104.5615         estimate D2E/DX2                !
 ! A8    A(4,5,7)              152.9137         estimate D2E/DX2                !
 ! A9    A(5,7,8)               87.1646         estimate D2E/DX2                !
 ! A10   A(5,7,9)              113.4145         estimate D2E/DX2                !
 ! A11   A(8,7,9)              104.4788         estimate D2E/DX2                !
 ! A12   A(2,8,7)              152.9034         estimate D2E/DX2                !
 ! D1    D(4,1,2,3)           -115.2187         estimate D2E/DX2                !
 ! D2    D(4,1,2,8)              1.046          estimate D2E/DX2                !
 ! D3    D(2,1,4,5)             -4.8802         estimate D2E/DX2                !
 ! D4    D(2,1,4,6)            100.2564         estimate D2E/DX2                !
 ! D5    D(1,2,8,7)              5.7194         estimate D2E/DX2                !
 ! D6    D(3,2,8,7)            111.3719         estimate D2E/DX2                !
 ! D7    D(1,4,5,7)              8.611          estimate D2E/DX2                !
 ! D8    D(6,4,5,7)           -111.05           estimate D2E/DX2                !
 ! D9    D(4,5,7,8)             -6.5853         estimate D2E/DX2                !
 ! D10   D(4,5,7,9)           -111.1423         estimate D2E/DX2                !
 ! D11   D(5,7,8,2)             -4.7496         estimate D2E/DX2                !
 ! D12   D(9,7,8,2)            108.7116         estimate D2E/DX2                !
 --------------------------------------------------------------------------------
 Trust Radius=3.00D-01 FncErr=1.00D-07 GrdErr=1.00D-06 EigMax=2.50D+02 EigMin=1.00D-04
 Number of steps in this run=     43 maximum allowed number of steps=    100.
 GradGradGradGradGradGradGradGradGradGradGradGradGradGradGradGradGradGrad

 Leave Link  103 at Fri Jun 18 13:48:59 2021, MaxMem=   134217728 cpu:               0.0 elap:               0.0
 (Enter /APL/ISV/x86_64/gaussian/16/C.01/g16/l202.exe)
                          Input orientation:                          
 ---------------------------------------------------------------------
 Center     Atomic      Atomic             Coordinates (Angstroms)
 Number     Number       Type             X           Y           Z
 ---------------------------------------------------------------------
      1          1           0       -0.578400   -1.061891   -0.138056
      2          8           0       -1.472126   -0.652686   -0.093810
      3          1           0       -1.873835   -1.017331    0.709277
      4          8           0        1.311636   -0.934602   -0.102722
      5          1           0        1.196451    0.042157   -0.061379
      6          1           0        1.788313   -1.158405    0.710917
      7          8           0        0.160256    1.595763    0.119018
      8          1           0       -0.631715    1.011392    0.096164
      9          1           0        0.101062    2.116272   -0.696804
 ---------------------------------------------------------------------
                    Distance matrix (angstroms):
                    1          2          3          4          5
     1  H    0.000000
     2  O    0.983947   0.000000
     3  H    1.548583   0.969167   0.000000
     4  O    1.894647   2.798015   3.288375   0.000000
     5  H    2.091626   2.757746   3.338125   0.984396   0.000000
     6  H    2.516227   3.396145   3.664865   0.969184   1.545345
     7  O    2.770347   2.786663   3.363658   2.788833   1.876149
     8  H    2.087152   1.873909   2.456519   2.757365   2.075193
     9  H    3.297664   3.241242   3.961912   3.335604   2.430143
                    6          7          8          9
     6  H    0.000000
     7  O    3.253668   0.000000
     8  H    3.307941   0.984495   0.000000
     9  H    3.943603   0.969535   1.544837   0.000000
 Stoichiometry    H6O3
 Framework group  C1[X(H6O3)]
 Deg. of freedom    21
 Full point group                 C1      NOp   1
 Largest Abelian subgroup         C1      NOp   1
 Largest concise Abelian subgroup C1      NOp   1
                         Standard orientation:                         
 ---------------------------------------------------------------------
 Center     Atomic      Atomic             Coordinates (Angstroms)
 Number     Number       Type             X           Y           Z
 ---------------------------------------------------------------------
      1          1           0       -0.578378   -1.061903   -0.138056
      2          8           0       -1.472113   -0.652716   -0.093810
      3          1           0       -1.873814   -1.017369    0.709277
      4          8           0        1.311655   -0.934575   -0.102722
      5          1           0        1.196450    0.042182   -0.061379
      6          1           0        1.788337   -1.158368    0.710917
      7          8           0        0.160223    1.595766    0.119018
      8          1           0       -0.631736    1.011379    0.096164
      9          1           0        0.101019    2.116274   -0.696804
 ---------------------------------------------------------------------
 Rotational constants (GHZ):           6.9558644           6.8751744           3.5527415
 Leave Link  202 at Fri Jun 18 13:48:59 2021, MaxMem=   134217728 cpu:               0.0 elap:               0.0
 (Enter /APL/ISV/x86_64/gaussian/16/C.01/g16/l301.exe)
 Standard basis: CC-pVDZ (5D, 7F)
 Ernie: Thresh=  0.10000D-02 Tol=  0.10000D-05 Strict=F.
 Ernie:  6 primitive shells out of 96 were deleted.
 There are    75 symmetry adapted cartesian basis functions of A   symmetry.
 There are    72 symmetry adapted basis functions of A   symmetry.
    72 basis functions,   141 primitive gaussians,    75 cartesian basis functions
    15 alpha electrons       15 beta electrons
       nuclear repulsion energy        84.7472383440 Hartrees.
 IExCor=  402 DFT=T Ex+Corr=B3LYP ExCW=0 ScaHFX=  0.200000
 ScaDFX=  0.800000  0.720000  1.000000  0.810000 ScalE2=  1.000000  1.000000
 IRadAn=      5 IRanWt=     -1 IRanGd=            0 ICorTp=0 IEmpDi=  4
 NAtoms=    9 NActive=    9 NUniq=    9 SFac= 1.00D+00 NAtFMM=   60 NAOKFM=F Big=F
 Integral buffers will be    131072 words long.
 Raffenetti 2 integral format.
 Two-electron integral symmetry is turned on.
 Leave Link  301 at Fri Jun 18 13:48:59 2021, MaxMem=   134217728 cpu:               0.1 elap:               0.1
 (Enter /APL/ISV/x86_64/gaussian/16/C.01/g16/l302.exe)
 NPDir=0 NMtPBC=     1 NCelOv=     1 NCel=       1 NClECP=     1 NCelD=      1
         NCelK=      1 NCelE2=     1 NClLst=     1 CellRange=     0.0.
 One-electron integrals computed using PRISM.
 One-electron integral symmetry used in STVInt
 NBasis=    72 RedAO= T EigKep=  3.19D-02  NBF=    72
 NBsUse=    72 1.00D-06 EigRej= -1.00D+00 NBFU=    72
 Precomputing XC quadrature grid using
 IXCGrd= 4 IRadAn=           5 IRanWt=          -1 IRanGd=           0 AccXCQ= 0.00D+00.
 Generated NRdTot=       0 NPtTot=           0 NUsed=           0 NTot=          32
 NSgBfM=    75    75    75    75    75 MxSgAt=     9 MxSgA2=     9.
 Leave Link  302 at Fri Jun 18 13:48:59 2021, MaxMem=   134217728 cpu:               0.2 elap:               0.2
 (Enter /APL/ISV/x86_64/gaussian/16/C.01/g16/l303.exe)
 DipDrv:  MaxL=1.
 Leave Link  303 at Fri Jun 18 13:48:59 2021, MaxMem=   134217728 cpu:               0.0 elap:               0.0
 (Enter /APL/ISV/x86_64/gaussian/16/C.01/g16/l401.exe)
 ExpMin= 1.22D-01 ExpMax= 1.17D+04 ExpMxC= 4.01D+02 IAcc=3 IRadAn=         5 AccDes= 0.00D+00
 Harris functional with IExCor=  402 and IRadAn=       5 diagonalized for initial guess.
 HarFok:  IExCor=  402 AccDes= 0.00D+00 IRadAn=         5 IDoV= 1 UseB2=F ITyADJ=14
 ICtDFT=  3500011 ScaDFX=  1.000000  1.000000  1.000000  1.000000
 FoFCou: FMM=F IPFlag=           0 FMFlag=      100000 FMFlg1=           0
         NFxFlg=           0 DoJE=T BraDBF=F KetDBF=T FulRan=T
         wScrn=  0.000000 ICntrl=       500 IOpCl=  0 I1Cent=   200000004 NGrid=           0
         NMat0=    1 NMatS0=      1 NMatT0=    0 NMatD0=    1 NMtDS0=    0 NMtDT0=    0
 Petite list used in FoFCou.
 Harris En= -229.380251556528    
 JPrj=0 DoOrth=F DoCkMO=F.
 Leave Link  401 at Fri Jun 18 13:49:00 2021, MaxMem=   134217728 cpu:               0.8 elap:               0.8
 (Enter /APL/ISV/x86_64/gaussian/16/C.01/g16/l502.exe)
 Keep R1 ints in memory in canonical form, NReq=4353335.
 FoFCou: FMM=F IPFlag=           0 FMFlag=           0 FMFlg1=           0
         NFxFlg=           0 DoJE=F BraDBF=F KetDBF=F FulRan=T
         wScrn=  0.000000 ICntrl=       600 IOpCl=  0 I1Cent=           0 NGrid=           0
         NMat0=    1 NMatS0=   2628 NMatT0=    0 NMatD0=    1 NMtDS0=    0 NMtDT0=    0
 Symmetry not used in FoFCou.
 Two-electron integral symmetry not used.
 Closed shell SCF:
 Using DIIS extrapolation, IDIIS=  1040.
 NGot=   134217728 LenX=   130750330 LenY=   130744264
 Requested convergence on RMS density matrix=1.00D-08 within 128 cycles.
 Requested convergence on MAX density matrix=1.00D-06.
 Requested convergence on             energy=1.00D-06.
 No special actions if energy rises.
 Integral accuracy reduced to 1.0D-05 until final iterations.

 Cycle   1  Pass 0  IDiag  1:
 E= -229.106308756450    
 DIIS: error= 4.09D-02 at cycle   1 NSaved=   1.
 NSaved= 1 IEnMin= 1 EnMin= -229.106308756450     IErMin= 1 ErrMin= 4.09D-02
 ErrMax= 4.09D-02  0.00D+00 EMaxC= 1.00D-01 BMatC= 2.72D-01 BMatP= 2.72D-01
 IDIUse=3 WtCom= 5.91D-01 WtEn= 4.09D-01
 Coeff-Com:  0.100D+01
 Coeff-En:   0.100D+01
 Coeff:      0.100D+01
 Gap=     0.206 Goal=   None    Shift=    0.000
 GapD=    0.206 DampG=1.000 DampE=0.500 DampFc=0.5000 IDamp=-1.
 Damping current iteration by 5.00D-01
 RMSDP=1.08D-02 MaxDP=1.56D-01              OVMax= 1.79D-01

 Cycle   2  Pass 0  IDiag  1:
 E= -229.177566481149     Delta-E=       -0.071257724699 Rises=F Damp=T
 DIIS: error= 9.29D-03 at cycle   2 NSaved=   2.
 NSaved= 2 IEnMin= 2 EnMin= -229.177566481149     IErMin= 2 ErrMin= 9.29D-03
 ErrMax= 9.29D-03  0.00D+00 EMaxC= 1.00D-01 BMatC= 1.29D-02 BMatP= 2.72D-01
 IDIUse=3 WtCom= 9.07D-01 WtEn= 9.29D-02
 Coeff-Com:  0.167D+00 0.833D+00
 Coeff-En:   0.282D+00 0.718D+00
 Coeff:      0.178D+00 0.822D+00
 Gap=     0.321 Goal=   None    Shift=    0.000
 RMSDP=1.21D-03 MaxDP=1.66D-02 DE=-7.13D-02 OVMax= 1.01D-01

 Cycle   3  Pass 0  IDiag  1:
 E= -229.304727767040     Delta-E=       -0.127161285892 Rises=F Damp=F
 DIIS: error= 7.18D-04 at cycle   3 NSaved=   3.
 NSaved= 3 IEnMin= 3 EnMin= -229.304727767040     IErMin= 3 ErrMin= 7.18D-04
 ErrMax= 7.18D-04  0.00D+00 EMaxC= 1.00D-01 BMatC= 9.42D-05 BMatP= 1.29D-02
 IDIUse=3 WtCom= 9.93D-01 WtEn= 7.18D-03
 Coeff-Com:  0.165D-01 0.829D-02 0.975D+00
 Coeff-En:   0.000D+00 0.000D+00 0.100D+01
 Coeff:      0.164D-01 0.823D-02 0.975D+00
 Gap=     0.329 Goal=   None    Shift=    0.000
 RMSDP=9.49D-05 MaxDP=1.71D-03 DE=-1.27D-01 OVMax= 1.47D-03

 Cycle   4  Pass 0  IDiag  1:
 E= -229.304788462558     Delta-E=       -0.000060695517 Rises=F Damp=F
 DIIS: error= 1.73D-04 at cycle   4 NSaved=   4.
 NSaved= 4 IEnMin= 4 EnMin= -229.304788462558     IErMin= 4 ErrMin= 1.73D-04
 ErrMax= 1.73D-04  0.00D+00 EMaxC= 1.00D-01 BMatC= 5.54D-06 BMatP= 9.42D-05
 IDIUse=3 WtCom= 9.98D-01 WtEn= 1.73D-03
 Coeff-Com:  0.261D-02-0.120D-01 0.259D+00 0.751D+00
 Coeff-En:   0.000D+00 0.000D+00 0.000D+00 0.100D+01
 Coeff:      0.261D-02-0.120D-01 0.258D+00 0.751D+00
 Gap=     0.330 Goal=   None    Shift=    0.000
 RMSDP=2.47D-05 MaxDP=3.58D-04 DE=-6.07D-05 OVMax= 4.55D-04

 Cycle   5  Pass 0  IDiag  1:
 E= -229.304791223576     Delta-E=       -0.000002761019 Rises=F Damp=F
 DIIS: error= 9.17D-05 at cycle   5 NSaved=   5.
 NSaved= 5 IEnMin= 5 EnMin= -229.304791223576     IErMin= 5 ErrMin= 9.17D-05
 ErrMax= 9.17D-05  0.00D+00 EMaxC= 1.00D-01 BMatC= 1.35D-06 BMatP= 5.54D-06
 IDIUse=1 WtCom= 1.00D+00 WtEn= 0.00D+00
 Coeff-Com:  0.128D-02-0.739D-02 0.128D+00 0.432D+00 0.446D+00
 Coeff:      0.128D-02-0.739D-02 0.128D+00 0.432D+00 0.446D+00
 Gap=     0.329 Goal=   None    Shift=    0.000
 RMSDP=1.06D-05 MaxDP=2.19D-04 DE=-2.76D-06 OVMax= 2.33D-04

 Cycle   6  Pass 0  IDiag  1:
 E= -229.304792166126     Delta-E=       -0.000000942550 Rises=F Damp=F
 DIIS: error= 1.42D-05 at cycle   6 NSaved=   6.
 NSaved= 6 IEnMin= 6 EnMin= -229.304792166126     IErMin= 6 ErrMin= 1.42D-05
 ErrMax= 1.42D-05  0.00D+00 EMaxC= 1.00D-01 BMatC= 2.61D-08 BMatP= 1.35D-06
 IDIUse=1 WtCom= 1.00D+00 WtEn= 0.00D+00
 Coeff-Com:  0.230D-03-0.581D-03 0.553D-02 0.179D-01 0.958D-01 0.881D+00
 Coeff:      0.230D-03-0.581D-03 0.553D-02 0.179D-01 0.958D-01 0.881D+00
 Gap=     0.329 Goal=   None    Shift=    0.000
 RMSDP=1.54D-06 MaxDP=2.61D-05 DE=-9.43D-07 OVMax= 2.73D-05

 Initial convergence to 1.0D-05 achieved.  Increase integral accuracy.
 Cycle   7  Pass 1  IDiag  1:
 E= -229.304791501682     Delta-E=        0.000000664444 Rises=F Damp=F
 DIIS: error= 1.57D-06 at cycle   1 NSaved=   1.
 NSaved= 1 IEnMin= 1 EnMin= -229.304791501682     IErMin= 1 ErrMin= 1.57D-06
 ErrMax= 1.57D-06  0.00D+00 EMaxC= 1.00D-01 BMatC= 3.93D-10 BMatP= 3.93D-10
 IDIUse=1 WtCom= 1.00D+00 WtEn= 0.00D+00
 Coeff-Com:  0.100D+01
 Coeff:      0.100D+01
 Gap=     0.329 Goal=   None    Shift=    0.000
 RMSDP=1.54D-06 MaxDP=2.61D-05 DE= 6.64D-07 OVMax= 6.58D-06

 Cycle   8  Pass 1  IDiag  1:
 E= -229.304791501929     Delta-E=       -0.000000000246 Rises=F Damp=F
 DIIS: error= 8.18D-07 at cycle   2 NSaved=   2.
 NSaved= 2 IEnMin= 2 EnMin= -229.304791501929     IErMin= 2 ErrMin= 8.18D-07
 ErrMax= 8.18D-07  0.00D+00 EMaxC= 1.00D-01 BMatC= 1.74D-10 BMatP= 3.93D-10
 IDIUse=1 WtCom= 1.00D+00 WtEn= 0.00D+00
 Coeff-Com:  0.391D+00 0.609D+00
 Coeff:      0.391D+00 0.609D+00
 Gap=     0.329 Goal=   None    Shift=    0.000
 RMSDP=1.44D-07 MaxDP=3.00D-06 DE=-2.46D-10 OVMax= 2.69D-06

 Cycle   9  Pass 1  IDiag  1:
 E= -229.304791502043     Delta-E=       -0.000000000114 Rises=F Damp=F
 DIIS: error= 3.60D-07 at cycle   3 NSaved=   3.
 NSaved= 3 IEnMin= 3 EnMin= -229.304791502043     IErMin= 3 ErrMin= 3.60D-07
 ErrMax= 3.60D-07  0.00D+00 EMaxC= 1.00D-01 BMatC= 2.04D-11 BMatP= 1.74D-10
 IDIUse=1 WtCom= 1.00D+00 WtEn= 0.00D+00
 Coeff-Com:  0.163D+00 0.322D+00 0.515D+00
 Coeff:      0.163D+00 0.322D+00 0.515D+00
 Gap=     0.329 Goal=   None    Shift=    0.000
 RMSDP=4.46D-08 MaxDP=1.01D-06 DE=-1.14D-10 OVMax= 9.74D-07

 Cycle  10  Pass 1  IDiag  1:
 E= -229.304791502057     Delta-E=       -0.000000000014 Rises=F Damp=F
 DIIS: error= 5.58D-08 at cycle   4 NSaved=   4.
 NSaved= 4 IEnMin= 4 EnMin= -229.304791502057     IErMin= 4 ErrMin= 5.58D-08
 ErrMax= 5.58D-08  0.00D+00 EMaxC= 1.00D-01 BMatC= 5.53D-13 BMatP= 2.04D-11
 IDIUse=1 WtCom= 1.00D+00 WtEn= 0.00D+00
 Coeff-Com: -0.122D-01-0.445D-02 0.134D+00 0.883D+00
 Coeff:     -0.122D-01-0.445D-02 0.134D+00 0.883D+00
 Gap=     0.329 Goal=   None    Shift=    0.000
 RMSDP=1.01D-08 MaxDP=1.68D-07 DE=-1.44D-11 OVMax= 1.77D-07

 Cycle  11  Pass 1  IDiag  1:
 E= -229.304791502058     Delta-E=       -0.000000000001 Rises=F Damp=F
 DIIS: error= 2.55D-08 at cycle   5 NSaved=   5.
 NSaved= 5 IEnMin= 5 EnMin= -229.304791502058     IErMin= 5 ErrMin= 2.55D-08
 ErrMax= 2.55D-08  0.00D+00 EMaxC= 1.00D-01 BMatC= 8.58D-14 BMatP= 5.53D-13
 IDIUse=1 WtCom= 1.00D+00 WtEn= 0.00D+00
 Coeff-Com: -0.989D-02-0.911D-02 0.638D-01 0.495D+00 0.460D+00
 Coeff:     -0.989D-02-0.911D-02 0.638D-01 0.495D+00 0.460D+00
 Gap=     0.329 Goal=   None    Shift=    0.000
 RMSDP=2.68D-09 MaxDP=5.45D-08 DE=-6.82D-13 OVMax= 5.11D-08

 SCF Done:  E(RB3LYP) =  -229.304791502     A.U. after   11 cycles
            NFock= 11  Conv=0.27D-08     -V/T= 2.0057
 KE= 2.280076457144D+02 PE=-7.118916235963D+02 EE= 1.698319480359D+02
 Leave Link  502 at Fri Jun 18 13:49:07 2021, MaxMem=   134217728 cpu:               6.8 elap:               6.8
 (Enter /APL/ISV/x86_64/gaussian/16/C.01/g16/l601.exe)
 Copying SCF densities to generalized density rwf, IOpCl= 0 IROHF=0.

 **********************************************************************

            Population analysis using the SCF Density.

 **********************************************************************

 Orbital symmetries:
       Occupied  (A) (A) (A) (A) (A) (A) (A) (A) (A) (A) (A) (A)
                 (A) (A) (A)
       Virtual   (A) (A) (A) (A) (A) (A) (A) (A) (A) (A) (A) (A)
                 (A) (A) (A) (A) (A) (A) (A) (A) (A) (A) (A) (A)
                 (A) (A) (A) (A) (A) (A) (A) (A) (A) (A) (A) (A)
                 (A) (A) (A) (A) (A) (A) (A) (A) (A) (A) (A) (A)
                 (A) (A) (A) (A) (A) (A) (A) (A) (A)
 The electronic state is 1-A.
 Alpha  occ. eigenvalues --  -19.13351 -19.13182 -19.13070  -1.00829  -0.99048
 Alpha  occ. eigenvalues --   -0.98880  -0.53216  -0.50783  -0.50523  -0.39065
 Alpha  occ. eigenvalues --   -0.38661  -0.35973  -0.30905  -0.29640  -0.29301
 Alpha virt. eigenvalues --    0.03649   0.08047   0.08234   0.19882   0.20450
 Alpha virt. eigenvalues --    0.20771   0.51050   0.53637   0.57174   0.59436
 Alpha virt. eigenvalues --    0.61212   0.62787   0.83173   0.87209   0.92408
 Alpha virt. eigenvalues --    0.94338   0.97603   1.02132   1.03391   1.05840
 Alpha virt. eigenvalues --    1.06758   1.18014   1.21417   1.22866   1.25340
 Alpha virt. eigenvalues --    1.30980   1.32348   1.46023   1.47826   1.48556
 Alpha virt. eigenvalues --    1.58085   1.61383   1.67450   1.70260   1.74450
 Alpha virt. eigenvalues --    1.75174   2.08594   2.09248   2.11767   2.28069
 Alpha virt. eigenvalues --    2.32232   2.34661   2.89107   2.89490   2.90858
 Alpha virt. eigenvalues --    2.94400   2.95371   3.01711   3.10480   3.11695
 Alpha virt. eigenvalues --    3.14010   3.44061   3.46980   3.48256   3.72594
 Alpha virt. eigenvalues --    3.74303   3.76167
          Condensed to atoms (all electrons):
               1          2          3          4          5          6
     1  H    0.516693   0.325261  -0.030820   0.074601  -0.011553  -0.005154
     2  O    0.325261   7.558529   0.342773  -0.015619   0.003573   0.001029
     3  H   -0.030820   0.342773   0.548797  -0.000009   0.000393   0.000250
     4  O    0.074601  -0.015619  -0.000009   7.566316   0.322472   0.343641
     5  H   -0.011553   0.003573   0.000393   0.322472   0.522012  -0.032066
     6  H   -0.005154   0.001029   0.000250   0.343641  -0.032066   0.551204
     7  O    0.004103  -0.016849   0.000685  -0.017051   0.079255  -0.000709
     8  H   -0.011813   0.078359  -0.004623   0.004382  -0.012151   0.000705
     9  H    0.000702  -0.000704  -0.000017   0.000674  -0.004696  -0.000030
               7          8          9
     1  H    0.004103  -0.011813   0.000702
     2  O   -0.016849   0.078359  -0.000704
     3  H    0.000685  -0.004623  -0.000017
     4  O   -0.017051   0.004382   0.000674
     5  H    0.079255  -0.012151  -0.004696
     6  H   -0.000709   0.000705  -0.000030
     7  O    7.561203   0.324292   0.344476
     8  H    0.324292   0.519549  -0.032654
     9  H    0.344476  -0.032654   0.545480
 Mulliken charges:
               1
     1  H    0.137980
     2  O   -0.276352
     3  H    0.142571
     4  O   -0.279407
     5  H    0.132761
     6  H    0.141129
     7  O   -0.279405
     8  H    0.133955
     9  H    0.146769
 Sum of Mulliken charges =  -0.00000
 Mulliken charges with hydrogens summed into heavy atoms:
               1
     2  O    0.004198
     4  O   -0.005517
     7  O    0.001319
 Electronic spatial extent (au):  <R**2>=            332.0149
 Charge=              0.0000 electrons
 Dipole moment (field-independent basis, Debye):
    X=             -0.0315    Y=             -0.1291    Z=              1.2610  Tot=              1.2680
 Quadrupole moment (field-independent basis, Debye-Ang):
   XX=            -18.3836   YY=            -17.8682   ZZ=            -17.6098
   XY=              0.1797   XZ=             -0.3769   YZ=             -6.3877
 Traceless Quadrupole moment (field-independent basis, Debye-Ang):
   XX=             -0.4297   YY=              0.0857   ZZ=              0.3440
   XY=              0.1797   XZ=             -0.3769   YZ=             -6.3877
 Octapole moment (field-independent basis, Debye-Ang**2):
  XXX=              2.3704  YYY=              1.6790  ZZZ=              1.0905  XYY=             -2.4157
  XXY=             -2.4344  XXZ=             10.5913  XZZ=             -0.0250  YZZ=             -0.1586
  YYZ=             -3.4205  XYZ=             -0.9349
 Hexadecapole moment (field-independent basis, Debye-Ang**3):
 XXXX=           -157.2068 YYYY=           -153.2696 ZZZZ=            -17.8167 XXXY=              0.2965
 XXXZ=             -1.7449 YYYX=              0.5078 YYYZ=            -20.9005 ZZZX=             -0.1436
 ZZZY=             -5.2310 XXYY=            -50.8952 XXZZ=            -26.7188 YYZZ=            -26.3773
 XXYZ=            -12.0335 YYXZ=              0.0767 ZZXY=              0.0755
 N-N= 8.474723834397D+01 E-N=-7.118916212571D+02  KE= 2.280076457144D+02
 No NMR shielding tensors so no spin-rotation constants.
 Leave Link  601 at Fri Jun 18 13:49:07 2021, MaxMem=   134217728 cpu:               0.1 elap:               0.1
 (Enter /APL/ISV/x86_64/gaussian/16/C.01/g16/l701.exe)
 ... and contract with generalized density number  0.
 Compute integral first derivatives.
 Leave Link  701 at Fri Jun 18 13:49:07 2021, MaxMem=   134217728 cpu:               0.1 elap:               0.1
 (Enter /APL/ISV/x86_64/gaussian/16/C.01/g16/l702.exe)
 L702 exits ... SP integral derivatives will be done elsewhere.
 Leave Link  702 at Fri Jun 18 13:49:07 2021, MaxMem=   134217728 cpu:               0.0 elap:               0.0
 (Enter /APL/ISV/x86_64/gaussian/16/C.01/g16/l703.exe)
 Integral derivatives from FoFJK, PRISM(SPDF).
 Compute integral first derivatives, UseDBF=F ICtDFT=           0.
 Calling FoFJK, ICntrl=      2127 FMM=F ISym2X=0 I1Cent= 0 IOpClX= 0 NMat=1 NMatS=1 NMatT=0.
 FoFJK:  IHMeth= 1 ICntrl=    2127 DoSepK=F KAlg= 0 I1Cent=           0 FoldK=F
 IRaf=         0 NMat=       1 IRICut=       1 DoRegI=T DoRafI=F ISym2E= 0 IDoP0=0 IntGTp=1.
 FoFCou: FMM=F IPFlag=           0 FMFlag=      100000 FMFlg1=         800
         NFxFlg=           0 DoJE=F BraDBF=F KetDBF=F FulRan=T
         wScrn=  0.000000 ICntrl=      2127 IOpCl=  0 I1Cent=           0 NGrid=           0
         NMat0=    1 NMatS0=      1 NMatT0=    0 NMatD0=    1 NMtDS0=    0 NMtDT0=    0
 Symmetry not used in FoFCou.
 Leave Link  703 at Fri Jun 18 13:49:10 2021, MaxMem=   134217728 cpu:               2.5 elap:               2.5
 (Enter /APL/ISV/x86_64/gaussian/16/C.01/g16/l716.exe)
 Dipole        =-1.23767343D-02-5.07774493D-02 4.96125126D-01
 ***** Axes restored to original set *****
 -------------------------------------------------------------------
 Center     Atomic                   Forces (Hartrees/Bohr)
 Number     Number              X              Y              Z
 -------------------------------------------------------------------
      1        1           0.001293738    0.000267807    0.001423379
      2        8          -0.000765000    0.001803397   -0.000897301
      3        1           0.001849363   -0.000149282   -0.000331307
      4        8          -0.000956115   -0.001492483   -0.001342241
      5        1          -0.000889015    0.000958607    0.001362332
      6        1          -0.001161476    0.001510470   -0.000211077
      7        8           0.001798989   -0.000147045    0.000787525
      8        1          -0.000158365   -0.001303758   -0.001061809
      9        1          -0.001012119   -0.001447712    0.000270499
 -------------------------------------------------------------------
 Cartesian Forces:  Max     0.001849363 RMS     0.001123384
 Leave Link  716 at Fri Jun 18 13:49:10 2021, MaxMem=   134217728 cpu:               0.1 elap:               0.0
 (Enter /APL/ISV/x86_64/gaussian/16/C.01/g16/l103.exe)

 GradGradGradGradGradGradGradGradGradGradGradGradGradGradGradGradGradGrad
 Berny optimization.
 FormGI is forming the generalized inverse of G from B-inverse, IUseBI=4.
 Internal  Forces:  Max     0.001882591 RMS     0.000885462
 Search for a local minimum.
 Step number   1 out of a maximum of   43
 All quantities printed in internal units (Hartrees-Bohrs-Radians)
 RMS Force = .88546D-03 SwitMx=.10000D-02 MixMth= 2
 Mixed Optimization -- En-DIIS/RFO-DIIS
 Second derivative matrix not updated -- first step.
 ITU=  0
     Eigenvalues ---    0.00646   0.00724   0.00733   0.05264   0.05865
     Eigenvalues ---    0.05944   0.07532   0.07636   0.08413   0.09795
     Eigenvalues ---    0.10571   0.10623   0.20110   0.21450   0.21498
     Eigenvalues ---    0.48454   0.48579   0.50563   0.53472   0.53544
     Eigenvalues ---    0.53547
 RFO step:  Lambda=-3.45742851D-04 EMin= 6.46132543D-03
 Linear search not attempted -- first point.
 Iteration  1 RMS(Cart)=  0.01613047 RMS(Int)=  0.00011002
 Iteration  2 RMS(Cart)=  0.00007844 RMS(Int)=  0.00003177
 Iteration  3 RMS(Cart)=  0.00000001 RMS(Int)=  0.00003177
 ITry= 1 IFail=0 DXMaxC= 4.64D-02 DCOld= 1.00D+10 DXMaxT= 3.00D-01 DXLimC= 3.00D+00 Rises=F
 Variable       Old X    -DE/DX   Delta X   Delta X   Delta X     New X
                                 (Linear)    (Quad)   (Total)
    R1        1.85939  -0.00055   0.00000  -0.00107  -0.00106   1.85833
    R2        3.58036  -0.00188   0.00000  -0.03584  -0.03583   3.54453
    R3        1.83146  -0.00098   0.00000  -0.00184  -0.00184   1.82962
    R4        3.54118  -0.00166   0.00000  -0.03136  -0.03136   3.50982
    R5        1.86024  -0.00029   0.00000  -0.00055  -0.00055   1.85968
    R6        1.83149  -0.00110   0.00000  -0.00205  -0.00205   1.82944
    R7        3.54541  -0.00170   0.00000  -0.03167  -0.03168   3.51373
    R8        1.86043  -0.00045   0.00000  -0.00094  -0.00094   1.85948
    R9        1.83216  -0.00094   0.00000  -0.00176  -0.00176   1.83039
    A1        2.64104   0.00018   0.00000   0.00248   0.00249   2.64353
    A2        1.83099  -0.00146   0.00000  -0.01780  -0.01784   1.81315
    A3        1.53730  -0.00018   0.00000  -0.00231  -0.00233   1.53498
    A4        2.02195  -0.00055   0.00000  -0.00378  -0.00383   2.01811
    A5        1.52150  -0.00006   0.00000  -0.00151  -0.00152   1.51997
    A6        2.08378  -0.00043   0.00000  -0.00770  -0.00776   2.07602
    A7        1.82494  -0.00139   0.00000  -0.01617  -0.01619   1.80875
    A8        2.66885   0.00005   0.00000   0.00216   0.00217   2.67102
    A9        1.52131  -0.00030   0.00000  -0.00328  -0.00330   1.51801
   A10        1.97946  -0.00011   0.00000  -0.00299  -0.00305   1.97641
   A11        1.82350  -0.00131   0.00000  -0.01661  -0.01663   1.80687
   A12        2.66867   0.00030   0.00000   0.00239   0.00239   2.67106
    D1       -2.01095   0.00005   0.00000   0.00979   0.00973  -2.00121
    D2        0.01826  -0.00071   0.00000   0.00354   0.00358   0.02184
    D3       -0.08518   0.00062   0.00000  -0.00321  -0.00326  -0.08844
    D4        1.74980  -0.00105   0.00000  -0.02347  -0.02345   1.72635
    D5        0.09982   0.00047   0.00000   0.00458   0.00460   0.10442
    D6        1.94381  -0.00130   0.00000  -0.01681  -0.01678   1.92703
    D7        0.15029   0.00018   0.00000  -0.00278  -0.00276   0.14753
    D8       -1.93819   0.00077   0.00000   0.00709   0.00702  -1.93116
    D9       -0.11494  -0.00027   0.00000   0.00554   0.00552  -0.10941
   D10       -1.93980   0.00130   0.00000   0.02527   0.02525  -1.91455
   D11       -0.08290  -0.00016   0.00000  -0.00640  -0.00642  -0.08931
   D12        1.89737  -0.00043   0.00000  -0.01131  -0.01125   1.88613
         Item               Value     Threshold  Converged?
 Maximum Force            0.001883     0.000450     NO 
 RMS     Force            0.000885     0.000300     NO 
 Maximum Displacement     0.046369     0.001800     NO 
 RMS     Displacement     0.016152     0.001200     NO 
 Predicted change in Energy=-1.735130D-04
 Lowest energy point so far.  Saving SCF results.
 GradGradGradGradGradGradGradGradGradGradGradGradGradGradGradGradGradGrad

 Leave Link  103 at Fri Jun 18 13:49:10 2021, MaxMem=   134217728 cpu:               0.0 elap:               0.0
 (Enter /APL/ISV/x86_64/gaussian/16/C.01/g16/l202.exe)
                          Input orientation:                          
 ---------------------------------------------------------------------
 Center     Atomic      Atomic             Coordinates (Angstroms)
 Number     Number       Type             X           Y           Z
 ---------------------------------------------------------------------
      1          1           0       -0.571818   -1.052042   -0.143615
      2          8           0       -1.464640   -0.642503   -0.096794
      3          1           0       -1.849298   -1.015346    0.709697
      4          8           0        1.299712   -0.932956   -0.106407
      5          1           0        1.186551    0.043521   -0.060096
      6          1           0        1.766668   -1.147727    0.713986
      7          8           0        0.165669    1.586752    0.123088
      8          1           0       -0.626227    1.003154    0.099423
      9          1           0        0.095025    2.097816   -0.696677
 ---------------------------------------------------------------------
                    Distance matrix (angstroms):
                    1          2          3          4          5
     1  H    0.000000
     2  O    0.983384   0.000000
     3  H    1.536698   0.968194   0.000000
     4  O    1.875685   2.779586   3.254086   0.000000
     5  H    2.073426   2.738757   3.306079   0.984102   0.000000
     6  H    2.492619   3.369564   3.618390   0.968100   1.534538
     7  O    2.752863   2.770530   3.342920   2.772661   1.859387
     8  H    2.070232   1.857317   2.437761   2.738637   2.057306
     9  H    3.266828   3.209637   3.930656   3.314403   2.411803
                    6          7          8          9
     6  H    0.000000
     7  O    3.223311   0.000000
     8  H    3.275656   0.983995   0.000000
     9  H    3.913810   0.968603   1.533710   0.000000
 Stoichiometry    H6O3
 Framework group  C1[X(H6O3)]
 Deg. of freedom    21
 Full point group                 C1      NOp   1
 RotChk:  IX=0 Diff= 2.46D-02
 Largest Abelian subgroup         C1      NOp   1
 Largest concise Abelian subgroup C1      NOp   1
                         Standard orientation:                         
 ---------------------------------------------------------------------
 Center     Atomic      Atomic             Coordinates (Angstroms)
 Number     Number       Type             X           Y           Z
 ---------------------------------------------------------------------
      1          1           0       -0.590083   -1.043126   -0.139837
      2          8           0       -1.475729   -0.618230   -0.093595
      3          1           0       -1.866206   -0.982264    0.714122
      4          8           0        1.283236   -0.956016   -0.104049
      5          1           0        1.186846    0.022377   -0.060301
      6          1           0        1.746964   -1.176552    0.716645
      7          8           0        0.192661    1.583354    0.119325
      8          1           0       -0.609130    1.013345    0.097696
      9          1           0        0.130262    2.093353   -0.701771
 ---------------------------------------------------------------------
 Rotational constants (GHZ):           7.0352737           6.9704551           3.6002648
 Leave Link  202 at Fri Jun 18 13:49:10 2021, MaxMem=   134217728 cpu:               0.0 elap:               0.0
 (Enter /APL/ISV/x86_64/gaussian/16/C.01/g16/l301.exe)
 Standard basis: CC-pVDZ (5D, 7F)
 Ernie: Thresh=  0.10000D-02 Tol=  0.10000D-05 Strict=F.
 Ernie:  6 primitive shells out of 96 were deleted.
 There are    75 symmetry adapted cartesian basis functions of A   symmetry.
 There are    72 symmetry adapted basis functions of A   symmetry.
    72 basis functions,   141 primitive gaussians,    75 cartesian basis functions
    15 alpha electrons       15 beta electrons
       nuclear repulsion energy        85.1748251891 Hartrees.
 IExCor=  402 DFT=T Ex+Corr=B3LYP ExCW=0 ScaHFX=  0.200000
 ScaDFX=  0.800000  0.720000  1.000000  0.810000 ScalE2=  1.000000  1.000000
 IRadAn=      5 IRanWt=     -1 IRanGd=            0 ICorTp=0 IEmpDi=  4
 NAtoms=    9 NActive=    9 NUniq=    9 SFac= 1.00D+00 NAtFMM=   60 NAOKFM=F Big=F
 Integral buffers will be    131072 words long.
 Raffenetti 2 integral format.
 Two-electron integral symmetry is turned on.
 Leave Link  301 at Fri Jun 18 13:49:10 2021, MaxMem=   134217728 cpu:               0.1 elap:               0.1
 (Enter /APL/ISV/x86_64/gaussian/16/C.01/g16/l302.exe)
 NPDir=0 NMtPBC=     1 NCelOv=     1 NCel=       1 NClECP=     1 NCelD=      1
         NCelK=      1 NCelE2=     1 NClLst=     1 CellRange=     0.0.
 One-electron integrals computed using PRISM.
 One-electron integral symmetry used in STVInt
 NBasis=    72 RedAO= T EigKep=  3.16D-02  NBF=    72
 NBsUse=    72 1.00D-06 EigRej= -1.00D+00 NBFU=    72
 Precomputing XC quadrature grid using
 IXCGrd= 4 IRadAn=           5 IRanWt=          -1 IRanGd=           0 AccXCQ= 0.00D+00.
 Generated NRdTot=       0 NPtTot=           0 NUsed=           0 NTot=          32
 NSgBfM=    75    75    75    75    75 MxSgAt=     9 MxSgA2=     9.
 Leave Link  302 at Fri Jun 18 13:49:10 2021, MaxMem=   134217728 cpu:               0.2 elap:               0.2
 (Enter /APL/ISV/x86_64/gaussian/16/C.01/g16/l303.exe)
 DipDrv:  MaxL=1.
 Leave Link  303 at Fri Jun 18 13:49:10 2021, MaxMem=   134217728 cpu:               0.1 elap:               0.1
 (Enter /APL/ISV/x86_64/gaussian/16/C.01/g16/l401.exe)
 Initial guess from the checkpoint file:  "w3-b3lyp-dz.chk"
 B after Tr=     0.000000    0.000000    0.000000
         Rot=    0.999951    0.000151   -0.000372    0.009861 Ang=   1.13 deg.
 Guess basis will be translated and rotated to current coordinates.
 JPrj=2 DoOrth=T DoCkMO=T.
 Generating alternative initial guess.
 ExpMin= 1.22D-01 ExpMax= 1.17D+04 ExpMxC= 4.01D+02 IAcc=3 IRadAn=         5 AccDes= 0.00D+00
 Harris functional with IExCor=  402 and IRadAn=       5 diagonalized for initial guess.
 HarFok:  IExCor=  402 AccDes= 0.00D+00 IRadAn=         5 IDoV= 1 UseB2=F ITyADJ=14
 ICtDFT=  3500011 ScaDFX=  1.000000  1.000000  1.000000  1.000000
 FoFCou: FMM=F IPFlag=           0 FMFlag=      100000 FMFlg1=           0
         NFxFlg=           0 DoJE=T BraDBF=F KetDBF=T FulRan=T
         wScrn=  0.000000 ICntrl=       500 IOpCl=  0 I1Cent=   200000004 NGrid=           0
         NMat0=    1 NMatS0=      1 NMatT0=    0 NMatD0=    1 NMtDS0=    0 NMtDT0=    0
 Petite list used in FoFCou.
 Harris En= -229.379925756909    
 Leave Link  401 at Fri Jun 18 13:49:11 2021, MaxMem=   134217728 cpu:               1.0 elap:               1.0
 (Enter /APL/ISV/x86_64/gaussian/16/C.01/g16/l502.exe)
 Keep R1 ints in memory in canonical form, NReq=4353335.
 FoFCou: FMM=F IPFlag=           0 FMFlag=           0 FMFlg1=           0
         NFxFlg=           0 DoJE=F BraDBF=F KetDBF=F FulRan=T
         wScrn=  0.000000 ICntrl=       600 IOpCl=  0 I1Cent=           0 NGrid=           0
         NMat0=    1 NMatS0=   2628 NMatT0=    0 NMatD0=    1 NMtDS0=    0 NMtDT0=    0
 Symmetry not used in FoFCou.
 Two-electron integral symmetry not used.
 Closed shell SCF:
 Using DIIS extrapolation, IDIIS=  1040.
 NGot=   134217728 LenX=   130750330 LenY=   130744264
 Requested convergence on RMS density matrix=1.00D-08 within 128 cycles.
 Requested convergence on MAX density matrix=1.00D-06.
 Requested convergence on             energy=1.00D-06.
 No special actions if energy rises.
 Integral accuracy reduced to 1.0D-05 until final iterations.

 Cycle   1  Pass 0  IDiag  1:
 E= -229.304896820496    
 DIIS: error= 1.01D-03 at cycle   1 NSaved=   1.
 NSaved= 1 IEnMin= 1 EnMin= -229.304896820496     IErMin= 1 ErrMin= 1.01D-03
 ErrMax= 1.01D-03  0.00D+00 EMaxC= 1.00D-01 BMatC= 1.03D-04 BMatP= 1.03D-04
 IDIUse=3 WtCom= 9.90D-01 WtEn= 1.01D-02
 Coeff-Com:  0.100D+01
 Coeff-En:   0.100D+01
 Coeff:      0.100D+01
 Gap=     0.521 Goal=   None    Shift=    0.000
 GapD=    0.521 DampG=2.000 DampE=1.000 DampFc=2.0000 IDamp=-1.
 RMSDP=2.29D-04 MaxDP=3.39D-03              OVMax= 2.89D-03

 Cycle   2  Pass 0  IDiag  1:
 E= -229.305035362828     Delta-E=       -0.000138542332 Rises=F Damp=F
 DIIS: error= 9.35D-05 at cycle   2 NSaved=   2.
 NSaved= 2 IEnMin= 2 EnMin= -229.305035362828     IErMin= 2 ErrMin= 9.35D-05
 ErrMax= 9.35D-05  0.00D+00 EMaxC= 1.00D-01 BMatC= 1.09D-06 BMatP= 1.03D-04
 IDIUse=1 WtCom= 1.00D+00 WtEn= 0.00D+00
 Coeff-Com: -0.387D-01 0.104D+01
 Coeff:     -0.387D-01 0.104D+01
 Gap=     0.330 Goal=   None    Shift=    0.000
 RMSDP=1.76D-05 MaxDP=2.31D-04 DE=-1.39D-04 OVMax= 3.30D-04

 Cycle   3  Pass 0  IDiag  1:
 E= -229.305036403811     Delta-E=       -0.000001040983 Rises=F Damp=F
 DIIS: error= 3.69D-05 at cycle   3 NSaved=   3.
 NSaved= 3 IEnMin= 3 EnMin= -229.305036403811     IErMin= 3 ErrMin= 3.69D-05
 ErrMax= 3.69D-05  0.00D+00 EMaxC= 1.00D-01 BMatC= 1.85D-07 BMatP= 1.09D-06
 IDIUse=1 WtCom= 1.00D+00 WtEn= 0.00D+00
 Coeff-Com: -0.148D-01 0.294D+00 0.721D+00
 Coeff:     -0.148D-01 0.294D+00 0.721D+00
 Gap=     0.330 Goal=   None    Shift=    0.000
 RMSDP=5.35D-06 MaxDP=8.56D-05 DE=-1.04D-06 OVMax= 1.05D-04

 Initial convergence to 1.0D-05 achieved.  Increase integral accuracy.
 Cycle   4  Pass 1  IDiag  1:
 E= -229.305036118103     Delta-E=        0.000000285708 Rises=F Damp=F
 DIIS: error= 1.31D-05 at cycle   1 NSaved=   1.
 NSaved= 1 IEnMin= 1 EnMin= -229.305036118103     IErMin= 1 ErrMin= 1.31D-05
 ErrMax= 1.31D-05  0.00D+00 EMaxC= 1.00D-01 BMatC= 2.86D-08 BMatP= 2.86D-08
 IDIUse=1 WtCom= 1.00D+00 WtEn= 0.00D+00
 Coeff-Com:  0.100D+01
 Coeff:      0.100D+01
 Gap=     0.330 Goal=   None    Shift=    0.000
 RMSDP=5.35D-06 MaxDP=8.56D-05 DE= 2.86D-07 OVMax= 5.58D-05

 Cycle   5  Pass 1  IDiag  1:
 E= -229.305036102362     Delta-E=        0.000000015740 Rises=F Damp=F
 DIIS: error= 1.72D-05 at cycle   2 NSaved=   2.
 NSaved= 2 IEnMin= 1 EnMin= -229.305036118103     IErMin= 1 ErrMin= 1.31D-05
 ErrMax= 1.72D-05  0.00D+00 EMaxC= 1.00D-01 BMatC= 5.19D-08 BMatP= 2.86D-08
 IDIUse=1 WtCom= 1.00D+00 WtEn= 0.00D+00
 Coeff-Com:  0.575D+00 0.425D+00
 Coeff:      0.575D+00 0.425D+00
 Gap=     0.330 Goal=   None    Shift=    0.000
 RMSDP=1.87D-06 MaxDP=3.31D-05 DE= 1.57D-08 OVMax= 3.26D-05

 Cycle   6  Pass 1  IDiag  1:
 E= -229.305036138632     Delta-E=       -0.000000036269 Rises=F Damp=F
 DIIS: error= 6.21D-07 at cycle   3 NSaved=   3.
 NSaved= 3 IEnMin= 3 EnMin= -229.305036138632     IErMin= 3 ErrMin= 6.21D-07
 ErrMax= 6.21D-07  0.00D+00 EMaxC= 1.00D-01 BMatC= 5.37D-11 BMatP= 2.86D-08
 IDIUse=1 WtCom= 1.00D+00 WtEn= 0.00D+00
 Coeff-Com:  0.142D+00 0.112D+00 0.746D+00
 Coeff:      0.142D+00 0.112D+00 0.746D+00
 Gap=     0.330 Goal=   None    Shift=    0.000
 RMSDP=1.08D-07 MaxDP=1.70D-06 DE=-3.63D-08 OVMax= 1.98D-06

 Cycle   7  Pass 1  IDiag  1:
 E= -229.305036138678     Delta-E=       -0.000000000046 Rises=F Damp=F
 DIIS: error= 1.57D-07 at cycle   4 NSaved=   4.
 NSaved= 4 IEnMin= 4 EnMin= -229.305036138678     IErMin= 4 ErrMin= 1.57D-07
 ErrMax= 1.57D-07  0.00D+00 EMaxC= 1.00D-01 BMatC= 4.51D-12 BMatP= 5.37D-11
 IDIUse=1 WtCom= 1.00D+00 WtEn= 0.00D+00
 Coeff-Com: -0.342D-02-0.142D-02 0.193D+00 0.812D+00
 Coeff:     -0.342D-02-0.142D-02 0.193D+00 0.812D+00
 Gap=     0.330 Goal=   None    Shift=    0.000
 RMSDP=3.34D-08 MaxDP=6.08D-07 DE=-4.59D-11 OVMax= 6.86D-07

 Cycle   8  Pass 1  IDiag  1:
 E= -229.305036138680     Delta-E=       -0.000000000002 Rises=F Damp=F
 DIIS: error= 1.09D-07 at cycle   5 NSaved=   5.
 NSaved= 5 IEnMin= 5 EnMin= -229.305036138680     IErMin= 5 ErrMin= 1.09D-07
 ErrMax= 1.09D-07  0.00D+00 EMaxC= 1.00D-01 BMatC= 2.35D-12 BMatP= 4.51D-12
 IDIUse=1 WtCom= 1.00D+00 WtEn= 0.00D+00
 Coeff-Com: -0.185D-01-0.138D-01 0.413D-01 0.505D+00 0.486D+00
 Coeff:     -0.185D-01-0.138D-01 0.413D-01 0.505D+00 0.486D+00
 Gap=     0.330 Goal=   None    Shift=    0.000
 RMSDP=1.38D-08 MaxDP=2.28D-07 DE=-2.22D-12 OVMax= 3.19D-07

 Cycle   9  Pass 1  IDiag  1:
 E= -229.305036138682     Delta-E=       -0.000000000002 Rises=F Damp=F
 DIIS: error= 3.28D-09 at cycle   6 NSaved=   6.
 NSaved= 6 IEnMin= 6 EnMin= -229.305036138682     IErMin= 6 ErrMin= 3.28D-09
 ErrMax= 3.28D-09  0.00D+00 EMaxC= 1.00D-01 BMatC= 1.85D-15 BMatP= 2.35D-12
 IDIUse=1 WtCom= 1.00D+00 WtEn= 0.00D+00
 Coeff-Com: -0.136D-02-0.107D-02 0.403D-03 0.283D-01 0.437D-01 0.930D+00
 Coeff:     -0.136D-02-0.107D-02 0.403D-03 0.283D-01 0.437D-01 0.930D+00
 Gap=     0.330 Goal=   None    Shift=    0.000
 RMSDP=7.42D-10 MaxDP=1.37D-08 DE=-2.10D-12 OVMax= 1.96D-08

 SCF Done:  E(RB3LYP) =  -229.305036139     A.U. after    9 cycles
            NFock=  9  Conv=0.74D-09     -V/T= 2.0056
 KE= 2.280288501730D+02 PE=-7.127415300481D+02 EE= 1.702328185473D+02
 Leave Link  502 at Fri Jun 18 13:49:17 2021, MaxMem=   134217728 cpu:               6.2 elap:               6.2
 (Enter /APL/ISV/x86_64/gaussian/16/C.01/g16/l701.exe)
 ... and contract with generalized density number  0.
 Compute integral first derivatives.
 Leave Link  701 at Fri Jun 18 13:49:17 2021, MaxMem=   134217728 cpu:               0.1 elap:               0.1
 (Enter /APL/ISV/x86_64/gaussian/16/C.01/g16/l702.exe)
 L702 exits ... SP integral derivatives will be done elsewhere.
 Leave Link  702 at Fri Jun 18 13:49:17 2021, MaxMem=   134217728 cpu:               0.0 elap:               0.0
 (Enter /APL/ISV/x86_64/gaussian/16/C.01/g16/l703.exe)
 Integral derivatives from FoFJK, PRISM(SPDF).
 Compute integral first derivatives, UseDBF=F ICtDFT=           0.
 Calling FoFJK, ICntrl=      2127 FMM=F ISym2X=0 I1Cent= 0 IOpClX= 0 NMat=1 NMatS=1 NMatT=0.
 FoFJK:  IHMeth= 1 ICntrl=    2127 DoSepK=F KAlg= 0 I1Cent=           0 FoldK=F
 IRaf=         0 NMat=       1 IRICut=       1 DoRegI=T DoRafI=F ISym2E= 0 IDoP0=0 IntGTp=1.
 FoFCou: FMM=F IPFlag=           0 FMFlag=      100000 FMFlg1=         800
         NFxFlg=           0 DoJE=F BraDBF=F KetDBF=F FulRan=T
         wScrn=  0.000000 ICntrl=      2127 IOpCl=  0 I1Cent=           0 NGrid=           0
         NMat0=    1 NMatS0=      1 NMatT0=    0 NMatD0=    1 NMtDS0=    0 NMtDT0=    0
 Symmetry not used in FoFCou.
 Leave Link  703 at Fri Jun 18 13:49:19 2021, MaxMem=   134217728 cpu:               2.0 elap:               2.0
 (Enter /APL/ISV/x86_64/gaussian/16/C.01/g16/l716.exe)
 Dipole        =-1.38250556D-02-5.39366561D-02 4.98923655D-01
 ***** Axes restored to original set *****
 -------------------------------------------------------------------
 Center     Atomic                   Forces (Hartrees/Bohr)
 Number     Number              X              Y              Z
 -------------------------------------------------------------------
      1        1           0.002600911    0.000355745    0.000008941
      2        8          -0.000974274    0.000990049   -0.000564323
      3        1          -0.000062324    0.000108542    0.000648214
      4        8          -0.000358240   -0.001158197   -0.001032710
      5        1          -0.001439670    0.001907716    0.000044808
      6        1          -0.000348714   -0.000194793    0.000742092
      7        8           0.001244386    0.000337456    0.000521343
      8        1          -0.000795832   -0.002339992    0.000227866
      9        1           0.000133758   -0.000006526   -0.000596231
 -------------------------------------------------------------------
 Cartesian Forces:  Max     0.002600911 RMS     0.001000075
 Leave Link  716 at Fri Jun 18 13:49:19 2021, MaxMem=   134217728 cpu:               0.0 elap:               0.0
 (Enter /APL/ISV/x86_64/gaussian/16/C.01/g16/l103.exe)

 GradGradGradGradGradGradGradGradGradGradGradGradGradGradGradGradGradGrad
 Berny optimization.
 Using GEDIIS/GDIIS optimizer.
 FormGI is forming the generalized inverse of G from B-inverse, IUseBI=4.
 Internal  Forces:  Max     0.001318454 RMS     0.000593077
 Search for a local minimum.
 Step number   2 out of a maximum of   43
 All quantities printed in internal units (Hartrees-Bohrs-Radians)
 RMS Force = .59308D-03 SwitMx=.10000D-02 MixMth= 2
 Mixed Optimization -- En-DIIS/RFO-DIIS
 Swapping is turned off.
 Update second derivatives using D2CorX and points    1    2
 DE= -2.45D-04 DEPred=-1.74D-04 R= 1.41D+00
 TightC=F SS=  1.41D+00  RLast= 7.83D-02 DXNew= 5.0454D-01 2.3476D-01
 Trust test= 1.41D+00 RLast= 7.83D-02 DXMaxT set to 3.00D-01
 ITU=  1  0
     Eigenvalues ---    0.00647   0.00693   0.00734   0.02405   0.05898
     Eigenvalues ---    0.05953   0.07560   0.07874   0.08518   0.09782
     Eigenvalues ---    0.10562   0.11985   0.20786   0.21480   0.21512
     Eigenvalues ---    0.48431   0.48558   0.51809   0.53494   0.53546
     Eigenvalues ---    0.58816
 En-DIIS/RFO-DIIS/Sim-DIIS IScMMF=       -3 using points:     2    1
 RFO step:  Lambda=-2.65756691D-04.
 NNeg= 0 NGDIIS= 2 SimSw=  2.50D-03 Rises=F DC= -2.45D-04 SmlDif=  1.00D-05
 NRisDI= 0 DoIntr=F SqrtH=F CThrHd= 10.0 CDAdj=  3.0
 RMS Error=  0.1971759267D-01 NUsed= 2 OKEnD=T EnDIS=F
 InvSVX:  RCond= 1.47D-03 Info=           0 Equed=N FErr=  7.59D-15 BErr=  4.71D-17
 DidBck=F Rises=F RFO-DIIS coefs:    2.35466   -1.35466
 Iteration  1 RMS(Cart)=  0.02176434 RMS(Int)=  0.00019476
 Iteration  2 RMS(Cart)=  0.00011929 RMS(Int)=  0.00008204
 Iteration  3 RMS(Cart)=  0.00000002 RMS(Int)=  0.00008204
 ITry= 1 IFail=0 DXMaxC= 6.00D-02 DCOld= 1.00D+10 DXMaxT= 3.00D-01 DXLimC= 3.00D+00 Rises=F
 Variable       Old X    -DE/DX   Delta X   Delta X   Delta X     New X
                                 (Linear)    (Quad)   (Total)
    R1        1.85833   0.00116  -0.00144   0.00487   0.00344   1.86176
    R2        3.54453  -0.00132  -0.04854  -0.01155  -0.06009   3.48444
    R3        1.82962   0.00052  -0.00249   0.00325   0.00076   1.83038
    R4        3.50982  -0.00115  -0.04248  -0.00944  -0.05192   3.45790
    R5        1.85968   0.00114  -0.00075   0.00429   0.00354   1.86323
    R6        1.82944   0.00050  -0.00277   0.00337   0.00060   1.83004
    R7        3.51373  -0.00115  -0.04291  -0.00956  -0.05248   3.46126
    R8        1.85948   0.00112  -0.00128   0.00451   0.00323   1.86271
    R9        1.83039   0.00049  -0.00239   0.00309   0.00070   1.83109
    A1        2.64353   0.00047   0.00338   0.00240   0.00580   2.64933
    A2        1.81315   0.00014  -0.02417   0.01500  -0.00929   1.80387
    A3        1.53498  -0.00049  -0.00315  -0.00252  -0.00571   1.52926
    A4        2.01811  -0.00033  -0.00519  -0.00310  -0.00839   2.00973
    A5        1.51997  -0.00035  -0.00207  -0.00177  -0.00389   1.51608
    A6        2.07602  -0.00064  -0.01052  -0.00558  -0.01626   2.05976
    A7        1.80875   0.00000  -0.02194   0.01328  -0.00877   1.79998
    A8        2.67102   0.00036   0.00294   0.00188   0.00485   2.67586
    A9        1.51801  -0.00047  -0.00447  -0.00243  -0.00696   1.51106
   A10        1.97641  -0.00028  -0.00413  -0.00302  -0.00730   1.96911
   A11        1.80687   0.00013  -0.02253   0.01379  -0.00884   1.79802
   A12        2.67106   0.00050   0.00324   0.00210   0.00534   2.67640
    D1       -2.00121   0.00038   0.01318   0.01040   0.02350  -1.97771
    D2        0.02184  -0.00008   0.00485   0.00776   0.01274   0.03458
    D3       -0.08844   0.00020  -0.00442  -0.00840  -0.01296  -0.10139
    D4        1.72635  -0.00005  -0.03177   0.00536  -0.02632   1.70003
    D5        0.10442  -0.00002   0.00622   0.00257   0.00885   0.11327
    D6        1.92703  -0.00014  -0.02273   0.01777  -0.00485   1.92217
    D7        0.14753  -0.00017  -0.00375   0.00043  -0.00334   0.14418
    D8       -1.93116   0.00058   0.00951   0.00560   0.01496  -1.91621
    D9       -0.10941   0.00010   0.00748   0.00272   0.01015  -0.09926
   D10       -1.91455   0.00018   0.03420  -0.01111   0.02301  -1.89154
   D11       -0.08931   0.00003  -0.00869  -0.00545  -0.01416  -0.10348
   D12        1.88613  -0.00036  -0.01524  -0.00852  -0.02362   1.86250
         Item               Value     Threshold  Converged?
 Maximum Force            0.001318     0.000450     NO 
 RMS     Force            0.000593     0.000300     NO 
 Maximum Displacement     0.059957     0.001800     NO 
 RMS     Displacement     0.021832     0.001200     NO 
 Predicted change in Energy=-1.348140D-04
 Lowest energy point so far.  Saving SCF results.
 GradGradGradGradGradGradGradGradGradGradGradGradGradGradGradGradGradGrad

 Leave Link  103 at Fri Jun 18 13:49:19 2021, MaxMem=   134217728 cpu:               0.0 elap:               0.0
 (Enter /APL/ISV/x86_64/gaussian/16/C.01/g16/l202.exe)
                          Input orientation:                          
 ---------------------------------------------------------------------
 Center     Atomic      Atomic             Coordinates (Angstroms)
 Number     Number       Type             X           Y           Z
 ---------------------------------------------------------------------
      1          1           0       -0.555758   -1.038073   -0.152352
      2          8           0       -1.451547   -0.631495   -0.098691
      3          1           0       -1.820631   -1.009719    0.713036
      4          8           0        1.284327   -0.926756   -0.112087
      5          1           0        1.169977    0.051122   -0.058915
      6          1           0        1.734940   -1.141026    0.717892
      7          8           0        0.169631    1.574121    0.127111
      8          1           0       -0.621438    0.986483    0.104735
      9          1           0        0.092141    2.076011   -0.698123
 ---------------------------------------------------------------------
                    Distance matrix (angstroms):
                    1          2          3          4          5
     1  H    0.000000
     2  O    0.985202   0.000000
     3  H    1.532842   0.968596   0.000000
     4  O    1.843888   2.751793   3.213794   0.000000
     5  H    2.042850   2.709231   3.265735   0.985976   0.000000
     6  H    2.452594   3.328682   3.557998   0.968416   1.530957
     7  O    2.725408   2.746624   3.313711   2.748482   1.831618
     8  H    2.041871   1.829841   2.406848   2.709140   2.027523
     9  H    3.227252   3.173780   3.895099   3.283498   2.381279
                    6          7          8          9
     6  H    0.000000
     7  O    3.189238   0.000000
     8  H    3.233384   0.985702   0.000000
     9  H    3.879847   0.968973   1.529983   0.000000
 Stoichiometry    H6O3
 Framework group  C1[X(H6O3)]
 Deg. of freedom    21
 Full point group                 C1      NOp   1
 RotChk:  IX=0 Diff= 2.34D-01
 Largest Abelian subgroup         C1      NOp   1
 Largest concise Abelian subgroup C1      NOp   1
                         Standard orientation:                         
 ---------------------------------------------------------------------
 Center     Atomic      Atomic             Coordinates (Angstroms)
 Number     Number       Type             X           Y           Z
 ---------------------------------------------------------------------
      1          1           0       -0.736120   -0.922250   -0.145231
      2          8           0       -1.543115   -0.359457   -0.093780
      3          1           0       -1.973938   -0.659995    0.720005
      4          8           0        1.093618   -1.146770   -0.105597
      5          1           0        1.158825   -0.164115   -0.057763
      6          1           0        1.498655   -1.434859    0.725535
      7          8           0        0.451909    1.516215    0.119958
      8          1           0       -0.432752    1.081914    0.100801
      9          1           0        0.466033    2.019395   -0.708002
 ---------------------------------------------------------------------
 Rotational constants (GHZ):           7.1516284           7.1149505           3.6713473
 Leave Link  202 at Fri Jun 18 13:49:19 2021, MaxMem=   134217728 cpu:               0.0 elap:               0.0
 (Enter /APL/ISV/x86_64/gaussian/16/C.01/g16/l301.exe)
 Standard basis: CC-pVDZ (5D, 7F)
 Ernie: Thresh=  0.10000D-02 Tol=  0.10000D-05 Strict=F.
 Ernie:  6 primitive shells out of 96 were deleted.
 There are    75 symmetry adapted cartesian basis functions of A   symmetry.
 There are    72 symmetry adapted basis functions of A   symmetry.
    72 basis functions,   141 primitive gaussians,    75 cartesian basis functions
    15 alpha electrons       15 beta electrons
       nuclear repulsion energy        85.7576488570 Hartrees.
 IExCor=  402 DFT=T Ex+Corr=B3LYP ExCW=0 ScaHFX=  0.200000
 ScaDFX=  0.800000  0.720000  1.000000  0.810000 ScalE2=  1.000000  1.000000
 IRadAn=      5 IRanWt=     -1 IRanGd=            0 ICorTp=0 IEmpDi=  4
 NAtoms=    9 NActive=    9 NUniq=    9 SFac= 1.00D+00 NAtFMM=   60 NAOKFM=F Big=F
 Integral buffers will be    131072 words long.
 Raffenetti 2 integral format.
 Two-electron integral symmetry is turned on.
 Leave Link  301 at Fri Jun 18 13:49:20 2021, MaxMem=   134217728 cpu:               0.1 elap:               0.1
 (Enter /APL/ISV/x86_64/gaussian/16/C.01/g16/l302.exe)
 NPDir=0 NMtPBC=     1 NCelOv=     1 NCel=       1 NClECP=     1 NCelD=      1
         NCelK=      1 NCelE2=     1 NClLst=     1 CellRange=     0.0.
 One-electron integrals computed using PRISM.
 One-electron integral symmetry used in STVInt
 NBasis=    72 RedAO= T EigKep=  3.15D-02  NBF=    72
 NBsUse=    72 1.00D-06 EigRej= -1.00D+00 NBFU=    72
 Precomputing XC quadrature grid using
 IXCGrd= 4 IRadAn=           5 IRanWt=          -1 IRanGd=           0 AccXCQ= 0.00D+00.
 Generated NRdTot=       0 NPtTot=           0 NUsed=           0 NTot=          32
 NSgBfM=    75    75    75    75    75 MxSgAt=     9 MxSgA2=     9.
 Leave Link  302 at Fri Jun 18 13:49:20 2021, MaxMem=   134217728 cpu:               0.2 elap:               0.2
 (Enter /APL/ISV/x86_64/gaussian/16/C.01/g16/l303.exe)
 DipDrv:  MaxL=1.
 Leave Link  303 at Fri Jun 18 13:49:20 2021, MaxMem=   134217728 cpu:               0.0 elap:               0.0
 (Enter /APL/ISV/x86_64/gaussian/16/C.01/g16/l401.exe)
 Initial guess from the checkpoint file:  "w3-b3lyp-dz.chk"
 B after Tr=    -0.000000   -0.000000    0.000000
         Rot=    0.996494   -0.000017   -0.000114    0.083660 Ang=  -9.60 deg.
 Guess basis will be translated and rotated to current coordinates.
 JPrj=2 DoOrth=T DoCkMO=T.
 Generating alternative initial guess.
 ExpMin= 1.22D-01 ExpMax= 1.17D+04 ExpMxC= 4.01D+02 IAcc=3 IRadAn=         5 AccDes= 0.00D+00
 Harris functional with IExCor=  402 and IRadAn=       5 diagonalized for initial guess.
 HarFok:  IExCor=  402 AccDes= 0.00D+00 IRadAn=         5 IDoV= 1 UseB2=F ITyADJ=14
 ICtDFT=  3500011 ScaDFX=  1.000000  1.000000  1.000000  1.000000
 FoFCou: FMM=F IPFlag=           0 FMFlag=      100000 FMFlg1=           0
         NFxFlg=           0 DoJE=T BraDBF=F KetDBF=T FulRan=T
         wScrn=  0.000000 ICntrl=       500 IOpCl=  0 I1Cent=   200000004 NGrid=           0
         NMat0=    1 NMatS0=      1 NMatT0=    0 NMatD0=    1 NMtDS0=    0 NMtDT0=    0
 Petite list used in FoFCou.
 Harris En= -229.379117374235    
 Leave Link  401 at Fri Jun 18 13:49:21 2021, MaxMem=   134217728 cpu:               0.8 elap:               0.8
 (Enter /APL/ISV/x86_64/gaussian/16/C.01/g16/l502.exe)
 Keep R1 ints in memory in canonical form, NReq=4353335.
 FoFCou: FMM=F IPFlag=           0 FMFlag=           0 FMFlg1=           0
         NFxFlg=           0 DoJE=F BraDBF=F KetDBF=F FulRan=T
         wScrn=  0.000000 ICntrl=       600 IOpCl=  0 I1Cent=           0 NGrid=           0
         NMat0=    1 NMatS0=   2628 NMatT0=    0 NMatD0=    1 NMtDS0=    0 NMtDT0=    0
 Symmetry not used in FoFCou.
 Two-electron integral symmetry not used.
 Closed shell SCF:
 Using DIIS extrapolation, IDIIS=  1040.
 NGot=   134217728 LenX=   130750330 LenY=   130744264
 Requested convergence on RMS density matrix=1.00D-08 within 128 cycles.
 Requested convergence on MAX density matrix=1.00D-06.
 Requested convergence on             energy=1.00D-06.
 No special actions if energy rises.
 Integral accuracy reduced to 1.0D-05 until final iterations.

 Cycle   1  Pass 0  IDiag  1:
 E= -229.305023177698    
 DIIS: error= 9.95D-04 at cycle   1 NSaved=   1.
 NSaved= 1 IEnMin= 1 EnMin= -229.305023177698     IErMin= 1 ErrMin= 9.95D-04
 ErrMax= 9.95D-04  0.00D+00 EMaxC= 1.00D-01 BMatC= 1.38D-04 BMatP= 1.38D-04
 IDIUse=3 WtCom= 9.90D-01 WtEn= 9.95D-03
 Coeff-Com:  0.100D+01
 Coeff-En:   0.100D+01
 Coeff:      0.100D+01
 Gap=     0.521 Goal=   None    Shift=    0.000
 RMSDP=2.71D-04 MaxDP=4.15D-03              OVMax= 3.92D-03

 Cycle   2  Pass 0  IDiag  1:
 E= -229.305218482986     Delta-E=       -0.000195305288 Rises=F Damp=F
 DIIS: error= 1.05D-04 at cycle   2 NSaved=   2.
 NSaved= 2 IEnMin= 2 EnMin= -229.305218482986     IErMin= 2 ErrMin= 1.05D-04
 ErrMax= 1.05D-04  0.00D+00 EMaxC= 1.00D-01 BMatC= 2.04D-06 BMatP= 1.38D-04
 IDIUse=3 WtCom= 9.99D-01 WtEn= 1.05D-03
 Coeff-Com: -0.374D-01 0.104D+01
 Coeff-En:   0.000D+00 0.100D+01
 Coeff:     -0.374D-01 0.104D+01
 Gap=     0.331 Goal=   None    Shift=    0.000
 RMSDP=2.44D-05 MaxDP=2.45D-04 DE=-1.95D-04 OVMax= 5.06D-04

 Cycle   3  Pass 0  IDiag  1:
 E= -229.305220149341     Delta-E=       -0.000001666355 Rises=F Damp=F
 DIIS: error= 6.75D-05 at cycle   3 NSaved=   3.
 NSaved= 3 IEnMin= 3 EnMin= -229.305220149341     IErMin= 3 ErrMin= 6.75D-05
 ErrMax= 6.75D-05  0.00D+00 EMaxC= 1.00D-01 BMatC= 8.40D-07 BMatP= 2.04D-06
 IDIUse=1 WtCom= 1.00D+00 WtEn= 0.00D+00
 Coeff-Com: -0.214D-01 0.407D+00 0.614D+00
 Coeff:     -0.214D-01 0.407D+00 0.614D+00
 Gap=     0.330 Goal=   None    Shift=    0.000
 RMSDP=1.10D-05 MaxDP=1.76D-04 DE=-1.67D-06 OVMax= 1.79D-04

 Cycle   4  Pass 0  IDiag  1:
 E= -229.305220680091     Delta-E=       -0.000000530751 Rises=F Damp=F
 DIIS: error= 2.77D-05 at cycle   4 NSaved=   4.
 NSaved= 4 IEnMin= 4 EnMin= -229.305220680091     IErMin= 4 ErrMin= 2.77D-05
 ErrMax= 2.77D-05  0.00D+00 EMaxC= 1.00D-01 BMatC= 1.34D-07 BMatP= 8.40D-07
 IDIUse=1 WtCom= 1.00D+00 WtEn= 0.00D+00
 Coeff-Com: -0.801D-02 0.121D+00 0.322D+00 0.565D+00
 Coeff:     -0.801D-02 0.121D+00 0.322D+00 0.565D+00
 Gap=     0.330 Goal=   None    Shift=    0.000
 RMSDP=3.18D-06 MaxDP=5.27D-05 DE=-5.31D-07 OVMax= 5.70D-05

 Initial convergence to 1.0D-05 achieved.  Increase integral accuracy.
 Cycle   5  Pass 1  IDiag  1:
 E= -229.305219698533     Delta-E=        0.000000981558 Rises=F Damp=F
 DIIS: error= 2.48D-06 at cycle   1 NSaved=   1.
 NSaved= 1 IEnMin= 1 EnMin= -229.305219698533     IErMin= 1 ErrMin= 2.48D-06
 ErrMax= 2.48D-06  0.00D+00 EMaxC= 1.00D-01 BMatC= 1.61D-09 BMatP= 1.61D-09
 IDIUse=1 WtCom= 1.00D+00 WtEn= 0.00D+00
 Coeff-Com:  0.100D+01
 Coeff:      0.100D+01
 Gap=     0.330 Goal=   None    Shift=    0.000
 RMSDP=3.18D-06 MaxDP=5.27D-05 DE= 9.82D-07 OVMax= 1.72D-05

 Cycle   6  Pass 1  IDiag  1:
 E= -229.305219699166     Delta-E=       -0.000000000633 Rises=F Damp=F
 DIIS: error= 2.62D-06 at cycle   2 NSaved=   2.
 NSaved= 2 IEnMin= 2 EnMin= -229.305219699166     IErMin= 1 ErrMin= 2.48D-06
 ErrMax= 2.62D-06  0.00D+00 EMaxC= 1.00D-01 BMatC= 1.20D-09 BMatP= 1.61D-09
 IDIUse=1 WtCom= 1.00D+00 WtEn= 0.00D+00
 Coeff-Com:  0.460D+00 0.540D+00
 Coeff:      0.460D+00 0.540D+00
 Gap=     0.330 Goal=   None    Shift=    0.000
 RMSDP=3.46D-07 MaxDP=6.80D-06 DE=-6.33D-10 OVMax= 6.14D-06

 Cycle   7  Pass 1  IDiag  1:
 E= -229.305219699964     Delta-E=       -0.000000000798 Rises=F Damp=F
 DIIS: error= 7.88D-07 at cycle   3 NSaved=   3.
 NSaved= 3 IEnMin= 3 EnMin= -229.305219699964     IErMin= 3 ErrMin= 7.88D-07
 ErrMax= 7.88D-07  0.00D+00 EMaxC= 1.00D-01 BMatC= 8.88D-11 BMatP= 1.20D-09
 IDIUse=1 WtCom= 1.00D+00 WtEn= 0.00D+00
 Coeff-Com:  0.141D+00 0.259D+00 0.600D+00
 Coeff:      0.141D+00 0.259D+00 0.600D+00
 Gap=     0.330 Goal=   None    Shift=    0.000
 RMSDP=9.98D-08 MaxDP=1.96D-06 DE=-7.98D-10 OVMax= 1.57D-06

 Cycle   8  Pass 1  IDiag  1:
 E= -229.305219700029     Delta-E=       -0.000000000065 Rises=F Damp=F
 DIIS: error= 1.17D-07 at cycle   4 NSaved=   4.
 NSaved= 4 IEnMin= 4 EnMin= -229.305219700029     IErMin= 4 ErrMin= 1.17D-07
 ErrMax= 1.17D-07  0.00D+00 EMaxC= 1.00D-01 BMatC= 2.06D-12 BMatP= 8.88D-11
 IDIUse=1 WtCom= 1.00D+00 WtEn= 0.00D+00
 Coeff-Com: -0.196D-01-0.366D-02 0.122D+00 0.902D+00
 Coeff:     -0.196D-01-0.366D-02 0.122D+00 0.902D+00
 Gap=     0.330 Goal=   None    Shift=    0.000
 RMSDP=2.34D-08 MaxDP=3.89D-07 DE=-6.53D-11 OVMax= 5.59D-07

 Cycle   9  Pass 1  IDiag  1:
 E= -229.305219700031     Delta-E=       -0.000000000002 Rises=F Damp=F
 DIIS: error= 5.41D-08 at cycle   5 NSaved=   5.
 NSaved= 5 IEnMin= 5 EnMin= -229.305219700031     IErMin= 5 ErrMin= 5.41D-08
 ErrMax= 5.41D-08  0.00D+00 EMaxC= 1.00D-01 BMatC= 5.84D-13 BMatP= 2.06D-12
 IDIUse=1 WtCom= 1.00D+00 WtEn= 0.00D+00
 Coeff-Com: -0.174D-01-0.124D-01 0.493D-01 0.533D+00 0.447D+00
 Coeff:     -0.174D-01-0.124D-01 0.493D-01 0.533D+00 0.447D+00
 Gap=     0.330 Goal=   None    Shift=    0.000
 RMSDP=6.96D-09 MaxDP=1.44D-07 DE=-2.05D-12 OVMax= 1.37D-07

 SCF Done:  E(RB3LYP) =  -229.305219700     A.U. after    9 cycles
            NFock=  9  Conv=0.70D-08     -V/T= 2.0056
 KE= 2.280366487857D+02 PE=-7.138963754783D+02 EE= 1.707968581355D+02
 Leave Link  502 at Fri Jun 18 13:49:26 2021, MaxMem=   134217728 cpu:               5.4 elap:               5.4
 (Enter /APL/ISV/x86_64/gaussian/16/C.01/g16/l701.exe)
 ... and contract with generalized density number  0.
 Compute integral first derivatives.
 Leave Link  701 at Fri Jun 18 13:49:26 2021, MaxMem=   134217728 cpu:               0.1 elap:               0.1
 (Enter /APL/ISV/x86_64/gaussian/16/C.01/g16/l702.exe)
 L702 exits ... SP integral derivatives will be done elsewhere.
 Leave Link  702 at Fri Jun 18 13:49:26 2021, MaxMem=   134217728 cpu:               0.0 elap:               0.0
 (Enter /APL/ISV/x86_64/gaussian/16/C.01/g16/l703.exe)
 Integral derivatives from FoFJK, PRISM(SPDF).
 Compute integral first derivatives, UseDBF=F ICtDFT=           0.
 Calling FoFJK, ICntrl=      2127 FMM=F ISym2X=0 I1Cent= 0 IOpClX= 0 NMat=1 NMatS=1 NMatT=0.
 FoFJK:  IHMeth= 1 ICntrl=    2127 DoSepK=F KAlg= 0 I1Cent=           0 FoldK=F
 IRaf=         0 NMat=       1 IRICut=       1 DoRegI=T DoRafI=F ISym2E= 0 IDoP0=0 IntGTp=1.
 FoFCou: FMM=F IPFlag=           0 FMFlag=      100000 FMFlg1=         800
         NFxFlg=           0 DoJE=F BraDBF=F KetDBF=F FulRan=T
         wScrn=  0.000000 ICntrl=      2127 IOpCl=  0 I1Cent=           0 NGrid=           0
         NMat0=    1 NMatS0=      1 NMatT0=    0 NMatD0=    1 NMtDS0=    0 NMtDT0=    0
 Symmetry not used in FoFCou.
 Leave Link  703 at Fri Jun 18 13:49:28 2021, MaxMem=   134217728 cpu:               2.0 elap:               2.0
 (Enter /APL/ISV/x86_64/gaussian/16/C.01/g16/l716.exe)
 Dipole        =-2.51632318D-02-5.71978875D-02 5.03648531D-01
 ***** Axes restored to original set *****
 -------------------------------------------------------------------
 Center     Atomic                   Forces (Hartrees/Bohr)
 Number     Number              X              Y              Z
 -------------------------------------------------------------------
      1        1           0.002066925    0.000647149   -0.000642323
      2        8          -0.000908502   -0.000381110    0.000223151
      3        1          -0.000749116    0.000494662    0.000454412
      4        8           0.000648328   -0.000437554   -0.000122872
      5        1          -0.001290611    0.001341458   -0.000718678
      6        1          -0.000224720   -0.000904213    0.000540337
      7        8           0.000147662    0.000818976   -0.000212661
      8        1          -0.000432184   -0.001954218    0.000860505
      9        1           0.000742218    0.000374848   -0.000381870
 -------------------------------------------------------------------
 Cartesian Forces:  Max     0.002066925 RMS     0.000843848
 Leave Link  716 at Fri Jun 18 13:49:28 2021, MaxMem=   134217728 cpu:               0.1 elap:               0.1
 (Enter /APL/ISV/x86_64/gaussian/16/C.01/g16/l103.exe)

 GradGradGradGradGradGradGradGradGradGradGradGradGradGradGradGradGradGrad
 Berny optimization.
 Using GEDIIS/GDIIS optimizer.
 FormGI is forming the generalized inverse of G from B-inverse, IUseBI=4.
 Internal  Forces:  Max     0.001328810 RMS     0.000600159
 Search for a local minimum.
 Step number   3 out of a maximum of   43
 All quantities printed in internal units (Hartrees-Bohrs-Radians)
 RMS Force = .60016D-03 SwitMx=.10000D-02 MixMth= 2
 Mixed Optimization -- En-DIIS/RFO-DIIS
 Swapping is turned off.
 Update second derivatives using D2CorX and points    1    2    3
 DE= -1.84D-04 DEPred=-1.35D-04 R= 1.36D+00
 TightC=F SS=  1.41D+00  RLast= 1.15D-01 DXNew= 5.0454D-01 3.4481D-01
 Trust test= 1.36D+00 RLast= 1.15D-01 DXMaxT set to 3.45D-01
 ITU=  1  1  0
     Eigenvalues ---    0.00631   0.00651   0.00734   0.01642   0.05938
     Eigenvalues ---    0.05969   0.07594   0.08004   0.08675   0.09845
     Eigenvalues ---    0.10549   0.13663   0.21440   0.21527   0.22042
     Eigenvalues ---    0.48395   0.48525   0.51883   0.53494   0.53548
     Eigenvalues ---    0.60782
 En-DIIS/RFO-DIIS/Sim-DIIS IScMMF=       -3 using points:     3    2    1
 RFO step:  Lambda=-1.16287722D-04.
 NNeg= 0 NGDIIS= 3 SimSw=  2.50D-03 Rises=F DC= -1.84D-04 SmlDif=  1.00D-05
 NRisDI= 0 DoIntr=F SqrtH=F CThrHd= 10.0 CDAdj=  3.0
 RMS Error=  0.1501192315D-01 NUsed= 3 OKEnD=T EnDIS=F
 InvSVX:  RCond= 1.13D-05 Info=           0 Equed=N FErr=  1.36D-12 BErr=  5.30D-17
 Old DIIS coefficients:      2.61878     -2.85465      1.23587
 DidBck=F Rises=F RFO-DIIS coefs:    2.03815   -2.00000    0.96185
 Iteration  1 RMS(Cart)=  0.01698431 RMS(Int)=  0.00018648
 Iteration  2 RMS(Cart)=  0.00013336 RMS(Int)=  0.00006641
 Iteration  3 RMS(Cart)=  0.00000003 RMS(Int)=  0.00006641
 ITry= 1 IFail=0 DXMaxC= 4.93D-02 DCOld= 1.00D+10 DXMaxT= 3.45D-01 DXLimC= 3.00D+00 Rises=F
 Variable       Old X    -DE/DX   Delta X   Delta X   Delta X     New X
                                 (Linear)    (Quad)   (Total)
    R1        1.86176   0.00133   0.00459   0.00078   0.00536   1.86713
    R2        3.48444  -0.00048  -0.02791  -0.02049  -0.04840   3.43604
    R3        1.83038   0.00047   0.00256  -0.00190   0.00066   1.83104
    R4        3.45790  -0.00043  -0.02374  -0.01821  -0.04195   3.41595
    R5        1.86323   0.00117   0.00421   0.00067   0.00488   1.86810
    R6        1.83004   0.00056   0.00259  -0.00172   0.00087   1.83091
    R7        3.46126  -0.00040  -0.02401  -0.01840  -0.04240   3.41885
    R8        1.86271   0.00123   0.00426   0.00064   0.00490   1.86761
    R9        1.83109   0.00046   0.00242  -0.00176   0.00066   1.83175
    A1        2.64933   0.00061   0.00362   0.00440   0.00797   2.65730
    A2        1.80387   0.00096   0.00752  -0.00045   0.00707   1.81094
    A3        1.52926  -0.00062  -0.00370  -0.00441  -0.00812   1.52115
    A4        2.00973  -0.00014  -0.00502  -0.00516  -0.01001   1.99972
    A5        1.51608  -0.00048  -0.00257  -0.00312  -0.00570   1.51039
    A6        2.05976  -0.00065  -0.00941  -0.01034  -0.01964   2.04012
    A7        1.79998   0.00074   0.00648  -0.00044   0.00603   1.80601
    A8        2.67586   0.00046   0.00295   0.00306   0.00598   2.68184
    A9        1.51106  -0.00046  -0.00405  -0.00386  -0.00791   1.50315
   A10        1.96911  -0.00032  -0.00464  -0.00468  -0.00921   1.95990
   A11        1.79802   0.00084   0.00682  -0.00085   0.00595   1.80397
   A12        2.67640   0.00053   0.00324   0.00366   0.00686   2.68326
    D1       -1.97771   0.00049   0.01504   0.01261   0.02781  -1.94990
    D2        0.03458   0.00025   0.00978   0.00620   0.01594   0.05053
    D3       -0.10139  -0.00004  -0.01031  -0.00605  -0.01627  -0.11766
    D4        1.70003   0.00050  -0.00477  -0.00893  -0.01368   1.68635
    D5        0.11327  -0.00028   0.00477   0.00430   0.00910   0.12237
    D6        1.92217   0.00048   0.01110   0.00135   0.01246   1.93463
    D7        0.14418  -0.00034  -0.00081  -0.00219  -0.00313   0.14105
    D8       -1.91621   0.00039   0.00878   0.00920   0.01808  -1.89812
    D9       -0.09926   0.00027   0.00523   0.00529   0.01048  -0.08878
   D10       -1.89154  -0.00044  -0.00040   0.00798   0.00756  -1.88398
   D11       -0.10348   0.00014  -0.00853  -0.00695  -0.01537  -0.11885
   D12        1.86250  -0.00026  -0.01371  -0.01266  -0.02647   1.83603
         Item               Value     Threshold  Converged?
 Maximum Force            0.001329     0.000450     NO 
 RMS     Force            0.000600     0.000300     NO 
 Maximum Displacement     0.049349     0.001800     NO 
 RMS     Displacement     0.017067     0.001200     NO 
 Predicted change in Energy=-3.855558D-05
 Lowest energy point so far.  Saving SCF results.
 GradGradGradGradGradGradGradGradGradGradGradGradGradGradGradGradGradGrad

 Leave Link  103 at Fri Jun 18 13:49:28 2021, MaxMem=   134217728 cpu:               0.0 elap:               0.0
 (Enter /APL/ISV/x86_64/gaussian/16/C.01/g16/l202.exe)
                          Input orientation:                          
 ---------------------------------------------------------------------
 Center     Atomic      Atomic             Coordinates (Angstroms)
 Number     Number       Type             X           Y           Z
 ---------------------------------------------------------------------
      1          1           0       -0.538705   -1.026870   -0.159378
      2          8           0       -1.440248   -0.627250   -0.098152
      3          1           0       -1.803750   -1.002553    0.717855
      4          8           0        1.275834   -0.918386   -0.116972
      5          1           0        1.156098    0.061149   -0.058463
      6          1           0        1.708825   -1.143335    0.720068
      7          8           0        0.168711    1.565531    0.128700
      8          1           0       -0.619815    0.970067    0.109290
      9          1           0        0.094691    2.062315   -0.700343
 ---------------------------------------------------------------------
                    Distance matrix (angstroms):
                    1          2          3          4          5
     1  H    0.000000
     2  O    0.988041   0.000000
     3  H    1.539633   0.968945   0.000000
     4  O    1.818273   2.731706   3.191843   0.000000
     5  H    2.016513   2.686351   3.239573   0.988559   0.000000
     6  H    2.416274   3.294312   3.515396   0.968875   1.537010
     7  O    2.702585   2.729193   3.291316   2.730552   1.809179
     8  H    2.016561   1.807640   2.379765   2.685318   2.002034
     9  H    3.199515   3.154747   3.874117   3.258833   2.354413
                    6          7          8          9
     6  H    0.000000
     7  O    3.171690   0.000000
     8  H    3.203448   0.988295   0.000000
     9  H    3.859946   0.969323   1.535914   0.000000
 Stoichiometry    H6O3
 Framework group  C1[X(H6O3)]
 Deg. of freedom    21
 Full point group                 C1      NOp   1
 RotChk:  IX=3 Diff= 1.09D+00
 Largest Abelian subgroup         C1      NOp   1
 Largest concise Abelian subgroup C1      NOp   1
                         Standard orientation:                         
 ---------------------------------------------------------------------
 Center     Atomic      Atomic             Coordinates (Angstroms)
 Number     Number       Type             X           Y           Z
[...]
     26 -0.110904D-02 -0.294144D-03  0.129232D-03  0.349642D-02  0.596998D-03
     27  0.560667D-03 -0.724964D-03  0.416422D-03 -0.370892D-02 -0.106487D-03
     28  0.353350D-02  0.213383D-03  0.536525D-03  0.291407D-03 -0.127201D-01
     29  0.471758D-02  0.134632D-03  0.186770D-03  0.453705D-03 -0.580297D-02
     30 -0.764019D-03  0.875679D-03 -0.505736D-03  0.894012D-03  0.143429D-01
     31  0.166710D-03 -0.187446D-02  0.122785D-02  0.971286D-03 -0.332859D-01
     32 -0.236213D-02 -0.170229D-02 -0.464119D-03 -0.351914D-02 -0.383255D-02
     33 -0.119663D-02 -0.436693D-03  0.131824D-02  0.268206D-02 -0.465783D-02
               21            22            23            24            25 
     21  0.226550D-01
     22 -0.147492D-03  0.362320D-02
     23  0.662331D-03  0.125327D-02  0.505996D-02
     24  0.145455D-02 -0.979999D-03 -0.476053D-02  0.551539D-02
     25 -0.186458D-02  0.438351D-02  0.894501D-02 -0.990291D-02  0.246387D-01
     26 -0.684905D-03 -0.883156D-03 -0.171691D-02  0.685445D-03 -0.627082D-03
     27  0.194798D-02  0.351445D-02  0.257313D-02 -0.231260D-03 -0.503957D-03
     28 -0.201249D-02 -0.326718D-03 -0.636934D-05 -0.174885D-02  0.252035D-02
     29 -0.426600D-03  0.429435D-03  0.527453D-03 -0.917289D-03  0.356800D-02
     30 -0.440787D-04  0.388388D-03  0.757982D-03  0.604658D-03 -0.180565D-03
     31 -0.152074D-02 -0.156012D-02 -0.214856D-02 -0.623193D-03 -0.629244D-03
     32  0.501660D-03  0.284497D-03  0.986142D-04  0.587379D-03 -0.207830D-02
     33  0.190251D-03  0.162669D-03 -0.261817D-03  0.389086D-03 -0.152335D-02
               26            27            28            29            30 
     26  0.523970D-02
     27 -0.965623D-02  0.250676D-01
     28  0.682920D-03 -0.221941D-02  0.485591D-02
     29  0.420012D-03 -0.164833D-02  0.127572D-02  0.389870D-02
     30  0.617536D-03 -0.607890D-03 -0.459085D-02 -0.104857D-02  0.532183D-02
     31 -0.896382D-04 -0.624697D-03  0.880134D-02  0.508042D-02 -0.982311D-02
     32 -0.456390D-02  0.881231D-02  0.204943D-04 -0.306834D-03 -0.175762D-02
     33 -0.937407D-03  0.509314D-02  0.365141D-03  0.167043D-03 -0.867235D-03
               31            32            33 
     31  0.252852D-01
     32  0.253045D-02  0.492519D-02
     33  0.360722D-02  0.118072D-02  0.420655D-02
 Leave Link  716 at Fri Jun 18 13:51:34 2021, MaxMem=   134217728 cpu:               0.1 elap:               0.0
 (Enter /APL/ISV/x86_64/gaussian/16/C.01/g16/l103.exe)

 GradGradGradGradGradGradGradGradGradGradGradGradGradGradGradGradGradGrad
 Berny optimization.
 Red2BG is reusing G-inverse.
 Internal  Forces:  Max     0.000025104 RMS     0.000009072
 Search for a local minimum.
 Step number   1 out of a maximum of    2
 All quantities printed in internal units (Hartrees-Bohrs-Radians)
 Second derivative matrix not updated -- analytic derivatives used.
 ITU=  0
     Eigenvalues ---    0.00055   0.00071   0.00104   0.00654   0.00797
     Eigenvalues ---    0.00965   0.01409   0.01421   0.01488   0.03045
     Eigenvalues ---    0.03069   0.03268   0.08057   0.08196   0.08298
     Eigenvalues ---    0.42725   0.42880   0.44825   0.51979   0.52025
     Eigenvalues ---    0.52100
 Angle between quadratic step and forces=  67.66 degrees.
 Linear search not attempted -- first point.
 Iteration  1 RMS(Cart)=  0.00175020 RMS(Int)=  0.00000474
 Iteration  2 RMS(Cart)=  0.00000405 RMS(Int)=  0.00000105
 Iteration  3 RMS(Cart)=  0.00000000 RMS(Int)=  0.00000105
 ITry= 1 IFail=0 DXMaxC= 5.27D-03 DCOld= 1.00D+10 DXMaxT= 3.00D-01 DXLimC= 3.00D+00 Rises=F
 Variable       Old X    -DE/DX   Delta X   Delta X   Delta X     New X
                                 (Linear)    (Quad)   (Total)
    R1        1.86730   0.00000   0.00000  -0.00002  -0.00002   1.86728
    R2        3.44616   0.00002   0.00000   0.00115   0.00115   3.44731
    R3        1.83115  -0.00000   0.00000   0.00000   0.00000   1.83115
    R4        3.42770  -0.00001   0.00000  -0.00074  -0.00074   3.42696
    R5        1.86799   0.00001   0.00000   0.00005   0.00005   1.86804
    R6        1.83138   0.00000   0.00000   0.00001   0.00001   1.83139
    R7        3.43104  -0.00001   0.00000  -0.00117  -0.00117   3.42987
    R8        1.86728   0.00001   0.00000   0.00004   0.00004   1.86732
    R9        1.83192  -0.00000   0.00000  -0.00005  -0.00005   1.83187
    A1        2.67451   0.00000   0.00000  -0.00018  -0.00019   2.67433
    A2        1.81232   0.00001   0.00000   0.00004   0.00004   1.81237
    A3        1.50519  -0.00000   0.00000  -0.00002  -0.00002   1.50517
    A4        1.97225  -0.00000   0.00000  -0.00077  -0.00077   1.97149
    A5        1.49822  -0.00001   0.00000  -0.00061  -0.00061   1.49760
    A6        1.98303  -0.00001   0.00000  -0.00198  -0.00199   1.98104
    A7        1.80440   0.00001   0.00000  -0.00014  -0.00014   1.80425
    A8        2.68986   0.00001   0.00000   0.00024   0.00023   2.69009
    A9        1.49453  -0.00000   0.00000   0.00045   0.00045   1.49498
   A10        1.93085   0.00003   0.00000   0.00420   0.00420   1.93505
   A11        1.80411   0.00001   0.00000   0.00052   0.00051   1.80463
   A12        2.69312   0.00000   0.00000  -0.00008  -0.00008   2.69304
    D1       -1.88619   0.00001   0.00000   0.00308   0.00308  -1.88311
    D2        0.08211   0.00000   0.00000   0.00229   0.00229   0.08440
    D3       -0.15105  -0.00000   0.00000  -0.00335  -0.00335  -0.15440
    D4        1.64312   0.00000   0.00000  -0.00382  -0.00382   1.63930
    D5        0.11807   0.00000   0.00000  -0.00404  -0.00404   0.11403
    D6        1.92353   0.00001   0.00000  -0.00403  -0.00403   1.91950
    D7        0.14809  -0.00000   0.00000   0.00536   0.00536   0.15345
    D8       -1.82945   0.00001   0.00000   0.00755   0.00755  -1.82191
    D9       -0.09029   0.00001   0.00000  -0.00629  -0.00629  -0.09658
   D10       -1.88187  -0.00001   0.00000  -0.00703  -0.00704  -1.88891
   D11       -0.12398  -0.00000   0.00000   0.00414   0.00414  -0.11985
   D12        1.79908   0.00002   0.00000   0.00856   0.00856   1.80764
         Item               Value     Threshold  Converged?
 Maximum Force            0.000025     0.000450     YES
 RMS     Force            0.000009     0.000300     YES
 Maximum Displacement     0.005275     0.001800     NO 
 RMS     Displacement     0.001750     0.001200     NO 
 Predicted change in Energy=-1.891134D-07
                           ----------------------------
                           ! Non-Optimized Parameters !
                           ! (Angstroms and Degrees)  !
 --------------------------                            --------------------------
 ! Name  Definition              Value          Derivative Info.                !
 --------------------------------------------------------------------------------
 ! R1    R(1,2)                  0.9881         -DE/DX =    0.0                 !
 ! R2    R(1,4)                  1.8242         -DE/DX =    0.0                 !
 ! R3    R(2,3)                  0.969          -DE/DX =    0.0                 !
 ! R4    R(2,8)                  1.8135         -DE/DX =    0.0                 !
 ! R5    R(4,5)                  0.9885         -DE/DX =    0.0                 !
 ! R6    R(4,6)                  0.9691         -DE/DX =    0.0                 !
 ! R7    R(5,7)                  1.815          -DE/DX =    0.0                 !
 ! R8    R(7,8)                  0.9881         -DE/DX =    0.0                 !
 ! R9    R(7,9)                  0.9694         -DE/DX =    0.0                 !
 ! A1    A(2,1,4)              153.2277         -DE/DX =    0.0                 !
 ! A2    A(1,2,3)              103.841          -DE/DX =    0.0                 !
 ! A3    A(1,2,8)               86.2398         -DE/DX =    0.0                 !
 ! A4    A(3,2,8)              112.9578         -DE/DX =    0.0                 !
 ! A5    A(1,4,5)               85.8064         -DE/DX =    0.0                 !
 ! A6    A(1,4,6)              113.5053         -DE/DX =    0.0                 !
 ! A7    A(5,4,6)              103.3761         -DE/DX =    0.0                 !
 ! A8    A(4,5,7)              154.131          -DE/DX =    0.0                 !
 ! A9    A(5,7,8)               85.6559         -DE/DX =    0.0                 !
 ! A10   A(5,7,9)              110.87           -DE/DX =    0.0                 !
 ! A11   A(8,7,9)              103.3975         -DE/DX =    0.0                 !
 ! A12   A(2,8,7)              154.2999         -DE/DX =    0.0                 !
 ! D1    D(4,1,2,3)           -107.8943         -DE/DX =    0.0                 !
 ! D2    D(4,1,2,8)              4.8359         -DE/DX =    0.0                 !
 ! D3    D(2,1,4,5)             -8.8463         -DE/DX =    0.0                 !
 ! D4    D(2,1,4,6)             93.9252         -DE/DX =    0.0                 !
 ! D5    D(1,2,8,7)              6.5336         -DE/DX =    0.0                 !
 ! D6    D(3,2,8,7)            109.9795         -DE/DX =    0.0                 !
 ! D7    D(1,4,5,7)              8.7923         -DE/DX =    0.0                 !
 ! D8    D(6,4,5,7)           -104.3876         -DE/DX =    0.0                 !
 ! D9    D(4,5,7,8)             -5.5336         -DE/DX =    0.0                 !
 ! D10   D(4,5,7,9)           -108.2266         -DE/DX =    0.0                 !
 ! D11   D(5,7,8,2)             -6.8668         -DE/DX =    0.0                 !
 ! D12   D(9,7,8,2)            103.5701         -DE/DX =    0.0                 !
 --------------------------------------------------------------------------------
 GradGradGradGradGradGradGradGradGradGradGradGradGradGradGradGradGradGrad

 Leave Link  103 at Fri Jun 18 13:51:34 2021, MaxMem=   134217728 cpu:               0.0 elap:               0.0
 (Enter /APL/ISV/x86_64/gaussian/16/C.01/g16/l9999.exe)

 ----------------------------------------------------------------------

 Electric dipole moment (input orientation):
 (Debye = 10**-18 statcoulomb cm , SI units = C m)
                  (au)            (Debye)         (10**-30 SI)
   Tot        0.524451D+00      0.133302D+01      0.444648D+01
   x         -0.239597D-01     -0.608996D-01     -0.203139D+00
   y         -0.761830D-01     -0.193638D+00     -0.645906D+00
   z          0.518335D+00      0.131747D+01      0.439462D+01

 Dipole polarizability, Alpha (input orientation).
 (esu units = cm**3 , SI units = C**2 m**2 J**-1)
 Alpha(0;0):
               (au)            (10**-24 esu)      (10**-40 SI)
   iso        0.195617D+02      0.289875D+01      0.322529D+01
   aniso      0.713085D+01      0.105668D+01      0.117572D+01
   xx         0.209491D+02      0.310433D+01      0.345403D+01
   yx         0.126766D-01      0.187847D-02      0.209008D-02
   yy         0.214236D+02      0.317465D+01      0.353228D+01
   zx         0.686017D-03      0.101657D-03      0.113109D-03
   zy        -0.299583D+01     -0.443937D+00     -0.493946D+00
   zz         0.163125D+02      0.241726D+01      0.268957D+01

 ----------------------------------------------------------------------

 Dipole orientation:
     1         -1.01520737         -1.94731844          0.00063777
     8         -2.72500331         -1.20509756          0.11243525
     1         -3.29056671         -1.65930023          1.79378374
     8          2.42388105         -1.75104840         -0.10008067
     1          2.17872610          0.09568481         -0.23739931
     1          3.21859908         -1.95259118          1.53752578
     8          0.31100590          2.97346930         -0.19273368
     1         -1.16310946          1.84409590          0.00279868
     1          0.11199323          3.64011442         -1.88740584

 Electric dipole moment (dipole orientation):
 (Debye = 10**-18 statcoulomb cm , SI units = C m)
                  (au)            (Debye)         (10**-30 SI)
   Tot        0.524451D+00      0.133302D+01      0.444648D+01
   x          0.000000D+00      0.000000D+00      0.000000D+00
   y          0.000000D+00      0.000000D+00      0.000000D+00
   z          0.524451D+00      0.133302D+01      0.444648D+01

 Dipole polarizability, Alpha (dipole orientation).
 (esu units = cm**3 , SI units = C**2 m**2 J**-1)
 Alpha(0;0):
               (au)            (10**-24 esu)      (10**-40 SI)
   iso        0.195617D+02      0.289875D+01      0.322529D+01
   aniso      0.713085D+01      0.105668D+01      0.117572D+01
   xx         0.209403D+02      0.310303D+01      0.345259D+01
   yx        -0.153670D+00     -0.227715D-01     -0.253367D-01
   yy         0.204545D+02      0.303105D+01      0.337250D+01
   zx        -0.180522D+00     -0.267505D-01     -0.297640D-01
   zy        -0.360070D+01     -0.533569D+00     -0.593676D+00
   zz         0.172903D+02      0.256216D+01      0.285079D+01

 ----------------------------------------------------------------------
 Unable to Open any file for archive entry.
 1\1\GINC-LEMON\Freq\RB3LYP\CC-pVDZ\H6O3\YAGI\18-Jun-2021\0\\#P Geom=Al
 lCheck Guess=TCheck SCRF=Check GenChk RB3LYP/CC-pVDZ Freq\\(H2O)3 b3ly
 p/cc-pvdz (opt/freq)\\0,1\H,-0.5332367357,-1.0177965987,-0.1738992917\
 O,-1.4410857216,-0.634772417,-0.0997097939\H,-1.7799003163,-1.00082101
 66,0.7310580822\O,1.2868284369,-0.913369148,-0.1283462044\H,1.15729225
 42,0.0644975717,-0.0641338408\H,1.6676994136,-1.1461749054,0.731851878
 7\O,0.1638121824,1.5710596058,0.1352872527\H,-0.6181696539,0.967336467
 3,0.1150996619\H,0.0984021404,2.0507094409,-0.7046027447\\Version=ES64
 L-G16RevC.01\State=1-A\HF=-229.3053634\RMSD=5.081e-10\RMSF=1.558e-05\Z
 eroPoint=0.0735621\Thermal=0.0802915\ETot=-229.2250719\HTot=-229.22412
 77\GTot=-229.2602763\Dipole=-0.0239597,-0.076183,0.5183345\DipoleDeriv
 =0.7204044,-0.0161543,-0.0110156,0.002976,0.2718847,0.0490276,0.000747
 3,0.0667285,0.235762,-0.842535,-0.1154905,0.0129064,-0.0996776,-0.7041
 109,-0.1123212,-0.0395135,-0.1321437,-0.3916917,0.2996487,0.0302143,-0
 .0079352,-0.0089379,0.2499956,0.0822626,0.0416197,0.0635888,0.1625263,
 -0.857127,0.0914901,0.0869474,0.1000463,-0.7308946,0.0590395,0.0829919
 ,-0.0023577,-0.3560415,0.3880601,-0.1984367,-0.0280722,-0.1742636,0.63
 60488,-0.044842,-0.0387014,-0.0105656,0.2096015,0.2895288,-0.0026178,-
 0.0461461,-0.028611,0.2754595,-0.0260047,-0.0631893,0.0254621,0.140135
 4,-0.6683681,0.001324,0.1011941,0.0035732,-0.9083532,-0.0286618,0.0708
 66,-0.1036933,-0.3801414,0.4038861,0.1875508,-0.0496831,0.2132742,0.61
 13623,-0.0094547,-0.0327825,0.0270321,0.2158666,0.266502,0.0221201,-0.
 0581958,-0.0083796,0.2986078,0.0309547,-0.0220382,0.0659487,0.1639827\
 Polar=20.9490676,0.0126766,21.4236148,0.000686,-2.9958348,16.3124825\Q
 uadrupole=-0.8311818,0.0776896,0.7534922,0.1350377,-0.2719077,-4.79611
 89\PG=C01 [X(H6O3)]\NImag=0\\0.36313965,-0.14080285,0.10045607,-0.0463
 3073,-0.00168653,0.05722696,-0.35599800,0.16021101,0.00770327,0.477636
 48,0.13240754,-0.09087644,0.01830802,-0.09492342,0.18670159,0.04812256
 ,-0.00339933,-0.04233123,-0.17468102,-0.17058951,0.41310848,-0.0132971
 4,-0.01858292,0.04013977,-0.08934084,-0.03382868,0.12329671,0.10508567
 ,0.00813874,0.00522609,-0.01592981,-0.06082406,-0.08873880,0.17461895,
 0.05314157,0.08442703,-0.00335857,0.00601945,-0.00752408,0.16689454,0.
 15628931,-0.37138644,-0.16233783,-0.16246313,0.37834693,0.00449347,0.0
 0142135,0.00331539,-0.02152097,0.00362293,-0.00013010,-0.00017525,0.00
 128514,-0.00067397,0.12589329,0.00212137,-0.00921116,0.00295053,0.0004
 8738,0.00742967,-0.00050614,0.00082295,-0.00053961,-0.00029570,-0.1048
 7943,0.50186264,0.00277502,0.00081657,-0.00916912,-0.00106742,-0.00009
 505,0.00620232,-0.00214825,0.00018021,-0.00001682,0.18448380,-0.062429
 49,0.44656412,-0.00021826,-0.00793492,-0.00031452,0.00044584,0.0036599
 4,0.00034665,0.00005182,-0.00026567,0.00007610,-0.02753365,0.03734642,
 -0.01363948,0.04036785,-0.01041099,-0.00024445,-0.00052451,0.00391326,
 -0.00531039,-0.00055379,-0.00019793,-0.00005717,0.00013007,0.05855179,
 -0.41125551,-0.00773313,-0.04788397,0.42086237,0.00040894,-0.00060344,
 0.00188935,-0.00083831,0.00006852,-0.00124699,0.00039028,0.00027608,0.
 00002470,-0.00751350,-0.05884711,-0.04858874,0.01358093,0.01265059,0.0
 5871516,0.00109854,0.00141575,-0.00475516,-0.00104135,-0.00033468,0.00
 232857,-0.00127362,0.00004212,-0.00004525,-0.08139413,0.05387888,-0.17
 025378,-0.00281287,-0.00064653,-0.00713505,0.08544364,0.00236826,0.000
 30811,-0.00167134,-0.00158275,-0.00016025,0.00036893,-0.00004126,0.000
 37332,0.00008949,0.03427217,-0.06734576,0.06990471,0.01890167,-0.01024
 864,0.04543349,-0.05442085,0.07856488,-0.00187002,-0.00000603,-0.00028
 064,0.00173149,-0.00045025,-0.00024989,0.00016752,0.00006434,0.0001065
 8,-0.17992443,0.11990708,-0.39993665,-0.00018261,-0.00632515,-0.002859
 19,0.17966865,-0.11249660,0.40340197,-0.00712104,0.00066016,0.00053167
 ,-0.00162105,-0.01460525,0.00063801,0.00007814,-0.00128698,-0.00149514
 ,0.00193505,0.01304595,-0.00157704,-0.00350952,-0.00868403,0.00450898,
 -0.00017852,0.00092230,0.00064987,0.32398963,0.00062121,0.00226766,0.0
 0057375,-0.01162787,-0.01225603,0.00077477,0.00018204,-0.00183677,-0.0
 0168959,0.00965891,-0.01596121,0.00076960,-0.00701490,0.00013447,-0.00
 197989,-0.00038401,-0.00175351,-0.00072788,0.19655397,0.32904181,0.000
 81552,0.00044969,-0.00136011,-0.00004113,0.00224846,0.00684804,-0.0006
 7293,-0.00218736,-0.00058678,-0.00034293,0.00050466,0.00677117,-0.0000
 7319,0.00188470,-0.01036745,0.00070051,-0.00192123,-0.00030228,0.05757
 485,-0.21270122,0.42310391,0.00775055,0.00338432,-0.00030612,-0.007370
 25,0.00541454,0.00138725,-0.00116536,-0.00047284,0.00094814,-0.0006544
 4,-0.00454934,-0.00019416,-0.00830770,0.00584837,0.00077742,-0.0000128
 5,-0.00009423,-0.00020158,-0.27694768,-0.20306436,-0.00170875,0.284568
 92,0.00575877,-0.00767664,-0.00265719,0.00466173,0.00385289,0.00081733
 ,-0.00146588,0.00080026,0.00193664,-0.00442031,-0.00440626,0.00033300,
 0.00324564,0.00803229,-0.00072418,0.00049312,0.00002537,0.00002220,-0.
 17765609,-0.16770950,0.01844221,0.18868191,0.18085101,-0.00047891,-0.0
 0176403,0.00133024,0.00058943,-0.00489844,-0.01062001,0.00117484,0.005
 40825,0.00105843,0.00010589,0.00063657,-0.00124834,0.00136631,-0.00120
 074,0.00155570,-0.00052341,0.00031564,0.00015230,-0.04169314,-0.010228
 72,-0.04390388,0.00491656,-0.01648025,0.05590180,0.00015223,0.00022810
 ,0.00001642,-0.00118986,-0.00141291,-0.00130862,0.00003658,0.00024199,
 -0.00000803,-0.00104336,0.00172582,0.00162130,0.00151650,-0.00048997,-
 0.00417968,0.00017116,-0.00032529,-0.00003890,-0.03662501,0.01507501,-
 0.05625196,0.00213882,-0.01929889,0.03454243,0.03484295,-0.00020204,-0
 .00024925,0.00063709,-0.00031527,-0.00064224,-0.00153121,-0.00002988,0
 .00034567,-0.00001654,0.00048745,-0.00057280,-0.00174641,-0.00005422,-
 0.00191297,0.00372592,-0.00004380,0.00023648,0.00001229,-0.00895003,-0
 .13192692,0.19328009,0.00485164,-0.01376942,0.02821172,0.00425616,0.14
 849144,-0.00008380,0.00017365,0.00021863,-0.00029087,-0.00088107,-0.00
 032428,-0.00001011,0.00003247,-0.00002252,0.00067985,-0.00192039,-0.00
 057794,-0.00116019,0.00167195,0.00087745,0.00001491,-0.00002308,-0.000
 03220,-0.01913805,0.22520919,-0.38020261,-0.00561877,-0.00168975,-0.00
 422623,0.02560704,-0.22257295,0.38428970\\0.00001120,-0.00000661,0.000
 01459,-0.00000821,0.00000381,-0.00001781,0.00000589,-0.00000894,-0.000
 00007,-0.00003895,0.00000401,-0.00001306,0.00002438,-0.00001584,0.0000
 0618,0.00000809,0.00000803,-0.00000156,-0.00002062,0.00002276,0.000027
 86,0.00001368,0.00001546,-0.00000017,0.00000454,-0.00002267,-0.0000159
 6\\\@
 The archive entry for this job was punched.


 IF MATHEMATICALLY YOU END UP WITH THE INCORRECT ANSWER,
 TRY MULTIPLYING BY THE PAGE NUMBER.
 Job cpu time:       0 days  0 hours  0 minutes 47.7 seconds.
 Elapsed time:       0 days  0 hours  0 minutes 47.6 seconds.
 File lengths (MBytes):  RWF=     10 Int=      0 D2E=      0 Chk=      2 Scr=      1
 Normal termination of Gaussian 16 at Fri Jun 18 13:51:34 2021.

real	2m34.957s
user	2m28.666s
sys	0m6.184s
