B3LYP/cc-pVDZ imidazole                                                 
FOpt      RB3LYP                                                      CC-pVDZ             
Number of atoms                            I                9
Info1-9                                    I   N=           9
          18          18           0           0           0         110
           2          18        -502
Full Title                                 C   N=           2
B3LYP/cc-pVDZ imidazole 
Route                                      C   N=           3
#P B3LYP/cc-pVDZ opt pop=esp        
Charge                                     I                0
Multiplicity                               I                1
Number of electrons                        I               36
Number of alpha electrons                  I               18
Number of beta electrons                   I               18
Number of basis functions                  I               90
Number of independent functions            I               90
Number of point charges in /Mol/           I                0
Number of translation vectors              I                0
Atomic numbers                             I   N=           9
           6           6           6           7           1           1
           1           1           7
Nuclear charges                            R   N=           9
  6.00000000E+00  6.00000000E+00  6.00000000E+00  7.00000000E+00  1.00000000E+00
  1.00000000E+00  1.00000000E+00  1.00000000E+00  7.00000000E+00
Current cartesian coordinates              R   N=          27
  1.85265966E+00 -1.05085132E+00 -1.75529577E-04 -2.15760754E+00 -5.04031518E-01
 -1.02643563E-05 -1.12606867E+00  1.88446213E+00  1.31032163E-04  1.45410483E+00
  1.50358976E+00  1.17980096E-04  2.79867926E+00  2.86303321E+00  3.53864975E-04
  3.74007064E+00 -1.86785942E+00 -3.05426123E-04 -4.14893142E+00 -1.01603535E+00
 -3.24191757E-05 -1.95677528E+00  3.76064723E+00  2.54297254E-04 -2.89382530E-01
 -2.32034139E+00 -1.09658140E-04
Number of symbols in /Mol/                 I                0
Int Atom Types                             I   N=           9
           0           0           0           0           0           0
           0           0           0
Force Field                                I                0
Atom Types                                 C   N=           9
                                                            
                                                
MM charges                                 R   N=           9
  0.00000000E+00  0.00000000E+00  0.00000000E+00  0.00000000E+00  0.00000000E+00
  0.00000000E+00  0.00000000E+00  0.00000000E+00  0.00000000E+00
Integer atomic weights                     I   N=           9
          12          12          12          14           1           1
           1           1          14
Real atomic weights                        R   N=           9
  1.20000000E+01  1.20000000E+01  1.20000000E+01  1.40030740E+01  1.00782504E+00
  1.00782504E+00  1.00782504E+00  1.00782504E+00  1.40030740E+01
Atom fragment info                         I   N=           9
           0           0           0           0           0           0
           0           0           0
Atom residue num                           I   N=           9
           0           0           0           0           0           0
           0           0           0
Nuclear spins                              I   N=           9
           0           0           0           2           1           1
           1           1           2
Nuclear ZEff                               R   N=           9
 -3.60000000E+00 -3.60000000E+00 -3.60000000E+00 -4.55000000E+00 -1.00000000E+00
 -1.00000000E+00 -1.00000000E+00 -1.00000000E+00 -4.55000000E+00
Nuclear ZNuc                               R   N=           9
  6.00000000E+00  6.00000000E+00  6.00000000E+00  7.00000000E+00  1.00000000E+00
  1.00000000E+00  1.00000000E+00  1.00000000E+00  7.00000000E+00
Nuclear QMom                               R   N=           9
  0.00000000E+00  0.00000000E+00  0.00000000E+00  2.04400000E+00  0.00000000E+00
  0.00000000E+00  0.00000000E+00  0.00000000E+00  2.04400000E+00
Nuclear GFac                               R   N=           9
  0.00000000E+00  0.00000000E+00  0.00000000E+00  4.03761000E-01  2.79284600E+00
  2.79284600E+00  2.79284600E+00  2.79284600E+00  4.03761000E-01
MicOpt                                     I   N=           9
          -1          -1          -1          -1          -1          -1
          -1          -1          -1
Number of residues                         I                0
Number of secondary structures             I                0
Redundant internal dimensions              I   N=           4
          38           9          13          16
Redundant internal coordinate indices      I   N=         152
           1           4           0           0           1           6
           0           0           1           9           0           0
           2           3           0           0           2           7
           0           0           2           9           0           0
           3           4           0           0           3           8
           0           0           4           5           0           0
           4           1           6           0           4           1
           9           0           6           1           9           0
           3           2           7           0           3           2
           9           0           7           2           9           0
           2           3           4           0           2           3
           8           0           4           3           8           0
           1           4           3           0           1           4
           5           0           3           4           5           0
           1           9           2           0           6           1
           4           3           6           1           4           5
           9           1           4           3           9           1
           4           5           4           1           9           2
           6           1           9           2           7           2
           3           4           7           2           3           8
           9           2           3           4           9           2
           3           8           3           2           9           1
           7           2           9           1           2           3
           4           1           2           3           4           5
           8           3           4           1           8           3
           4           5
Redundant internal coordinates             R   N=          38
  2.58534626E+00  2.05665322E+00  2.48996984E+00  2.60172526E+00  2.05609307E+00
  2.60561821E+00  2.60813325E+00  2.05186355E+00  1.91205830E+00  2.13409242E+00
  1.95102051E+00  2.19807238E+00  2.23014461E+00  1.93442313E+00  2.11861757E+00
  1.83192197E+00  2.31709045E+00  2.13417289E+00  1.87212936E+00  2.20691691E+00
  2.20413904E+00  1.83528299E+00  3.14155961E+00 -7.25215052E-05 -1.03907269E-04
  3.14144927E+00  1.00477606E-04 -3.14156618E+00  3.14158389E+00  3.14308551E-06
 -4.55156694E-07 -3.14158120E+00 -6.06685365E-05  3.14153968E+00  5.97778427E-05
 -3.14149348E+00 -3.14154322E+00  8.88302002E-05
ZRed-IntVec                                I   N=          38
           0           0           0           0           0           0
           0           0           0           0           0           0
           0           0           0           0           0           0
           0           0           0           0           0           0
           0           0           0           0           0           0
           0           0           0           0           0           0
           0           0
ZRed-FPVec                                 R   N=          38
  0.00000000E+00  0.00000000E+00  0.00000000E+00  0.00000000E+00  0.00000000E+00
  0.00000000E+00  0.00000000E+00  0.00000000E+00  0.00000000E+00  0.00000000E+00
  0.00000000E+00  0.00000000E+00  0.00000000E+00  0.00000000E+00  0.00000000E+00
  0.00000000E+00  0.00000000E+00  0.00000000E+00  0.00000000E+00  0.00000000E+00
  0.00000000E+00  0.00000000E+00  0.00000000E+00  0.00000000E+00  0.00000000E+00
  0.00000000E+00  0.00000000E+00  0.00000000E+00  0.00000000E+00  0.00000000E+00
  0.00000000E+00  0.00000000E+00  0.00000000E+00  0.00000000E+00  0.00000000E+00
  0.00000000E+00  0.00000000E+00  0.00000000E+00
ZRed-Constraint1                           R   N=          38
  2.63011673E+00  2.05841662E+00  2.64892360E+00  2.64910943E+00  2.04999654E+00
  2.71151400E+00  2.63012838E+00  2.05834966E+00  1.85993971E+00  2.12030824E+00
  1.89224538E+00  2.27063168E+00  2.20682725E+00  1.87074434E+00  2.20561372E+00
  1.89217572E+00  2.27088479E+00  2.12012480E+00  1.89884208E+00  2.19207401E+00
  2.19226916E+00  1.87077043E+00  3.14156101E+00 -3.68053410E-04  6.77475128E-05
  3.14132399E+00  6.81555070E-06 -3.14147504E+00 -3.14157944E+00  3.05390238E-05
  1.19583429E-04 -3.14145574E+00 -7.76549165E-05 -3.14156403E+00 -1.17315182E-04
 -3.14137351E+00  3.14145980E+00  2.03608224E-04
ZRed-Constraint2                           R   N=          38
  0.00000000E+00  0.00000000E+00  0.00000000E+00  0.00000000E+00  0.00000000E+00
  0.00000000E+00  0.00000000E+00  0.00000000E+00  0.00000000E+00  0.00000000E+00
  0.00000000E+00  0.00000000E+00  0.00000000E+00  0.00000000E+00  0.00000000E+00
  0.00000000E+00  0.00000000E+00  0.00000000E+00  0.00000000E+00  0.00000000E+00
  0.00000000E+00  0.00000000E+00  0.00000000E+00  0.00000000E+00  0.00000000E+00
  0.00000000E+00  0.00000000E+00  0.00000000E+00  0.00000000E+00  0.00000000E+00
  0.00000000E+00  0.00000000E+00  0.00000000E+00  0.00000000E+00  0.00000000E+00
  0.00000000E+00  0.00000000E+00  0.00000000E+00
SymInf integers                            I   N=          26
           1           1           1           1           1           0
           0           0           0           0           0           0
           0           0           0           0           0           0
           0           0           0           0           0           0
           0           0
RotTr to input orientation                 R   N=          12
 -8.70550000E-01 -4.92079971E-01  0.00000000E+00 -4.92079971E-01  8.70550000E-01
 -0.00000000E+00  0.00000000E+00  0.00000000E+00 -1.00000000E+00 -1.72230823E+00
 -6.92692786E-01 -2.80579337E-01
Number of contracted shells                I               42
Number of primitive shells                 I              120
Pure/Cartesian d shells                    I                0
Pure/Cartesian f shells                    I                0
Highest angular momentum                   I                2
Largest degree of contraction              I                7
Shell types                                I   N=          42
           0           0           0           1           1          -2
           0           0           0           1           1          -2
           0           0           0           1           1          -2
           0           0           0           1           1          -2
           0           0           1           0           0           1
           0           0           1           0           0           1
           0           0           0           1           1          -2
Number of primitives per shell             I   N=          42
           7           7           1           3           1           1
           7           7           1           3           1           1
           7           7           1           3           1           1
           7           7           1           3           1           1
           3           1           1           3           1           1
           3           1           1           3           1           1
           7           7           1           3           1           1
Shell to atom map                          I   N=          42
           1           1           1           1           1           1
           2           2           2           2           2           2
           3           3           3           3           3           3
           4           4           4           4           4           4
           5           5           5           6           6           6
           7           7           7           8           8           8
           9           9           9           9           9           9
Primitive exponents                        R   N=         120
  6.66500000E+03  1.00000000E+03  2.28000000E+02  6.47100000E+01  2.10600000E+01
  7.49500000E+00  2.79700000E+00  6.66500000E+03  2.28000000E+02  6.47100000E+01
  2.10600000E+01  7.49500000E+00  2.79700000E+00  5.21500000E-01  1.59600000E-01
  9.43900000E+00  2.00200000E+00  5.45600000E-01  1.51700000E-01  5.50000000E-01
  6.66500000E+03  1.00000000E+03  2.28000000E+02  6.47100000E+01  2.10600000E+01
  7.49500000E+00  2.79700000E+00  6.66500000E+03  2.28000000E+02  6.47100000E+01
  2.10600000E+01  7.49500000E+00  2.79700000E+00  5.21500000E-01  1.59600000E-01
  9.43900000E+00  2.00200000E+00  5.45600000E-01  1.51700000E-01  5.50000000E-01
  6.66500000E+03  1.00000000E+03  2.28000000E+02  6.47100000E+01  2.10600000E+01
  7.49500000E+00  2.79700000E+00  6.66500000E+03  2.28000000E+02  6.47100000E+01
  2.10600000E+01  7.49500000E+00  2.79700000E+00  5.21500000E-01  1.59600000E-01
  9.43900000E+00  2.00200000E+00  5.45600000E-01  1.51700000E-01  5.50000000E-01
  9.04600000E+03  1.35700000E+03  3.09300000E+02  8.77300000E+01  2.85600000E+01
  1.02100000E+01  3.83800000E+00  9.04600000E+03  3.09300000E+02  8.77300000E+01
  2.85600000E+01  1.02100000E+01  3.83800000E+00  7.46600000E-01  2.24800000E-01
  1.35500000E+01  2.91700000E+00  7.97300000E-01  2.18500000E-01  8.17000000E-01
  1.30100000E+01  1.96200000E+00  4.44600000E-01  1.22000000E-01  7.27000000E-01
  1.30100000E+01  1.96200000E+00  4.44600000E-01  1.22000000E-01  7.27000000E-01
  1.30100000E+01  1.96200000E+00  4.44600000E-01  1.22000000E-01  7.27000000E-01
  1.30100000E+01  1.96200000E+00  4.44600000E-01  1.22000000E-01  7.27000000E-01
  9.04600000E+03  1.35700000E+03  3.09300000E+02  8.77300000E+01  2.85600000E+01
  1.02100000E+01  3.83800000E+00  9.04600000E+03  3.09300000E+02  8.77300000E+01
  2.85600000E+01  1.02100000E+01  3.83800000E+00  7.46600000E-01  2.24800000E-01
  1.35500000E+01  2.91700000E+00  7.97300000E-01  2.18500000E-01  8.17000000E-01
Contraction coefficients                   R   N=         120
  6.93516317E-04  5.34150243E-03  2.71366714E-02  1.01992385E-01  2.75508636E-01
  4.51086433E-01  2.87565745E-01  7.73354740E-06  2.78072137E-04 -2.57875654E-03
 -8.95087684E-03 -1.06058855E-01 -1.31517686E-01  1.09948660E+00  1.00000000E+00
  5.69792516E-02  3.13207212E-01  7.60376742E-01  1.00000000E+00  1.00000000E+00
  6.93516317E-04  5.34150243E-03  2.71366714E-02  1.01992385E-01  2.75508636E-01
  4.51086433E-01  2.87565745E-01  7.73354740E-06  2.78072137E-04 -2.57875654E-03
 -8.95087684E-03 -1.06058855E-01 -1.31517686E-01  1.09948660E+00  1.00000000E+00
  5.69792516E-02  3.13207212E-01  7.60376742E-01  1.00000000E+00  1.00000000E+00
  6.93516317E-04  5.34150243E-03  2.71366714E-02  1.01992385E-01  2.75508636E-01
  4.51086433E-01  2.87565745E-01  7.73354740E-06  2.78072137E-04 -2.57875654E-03
 -8.95087684E-03 -1.06058855E-01 -1.31517686E-01  1.09948660E+00  1.00000000E+00
  5.69792516E-02  3.13207212E-01  7.60376742E-01  1.00000000E+00  1.00000000E+00
  7.01708743E-04  5.40299880E-03  2.74729510E-02  1.03514580E-01  2.79586579E-01
  4.51317241E-01  2.80626875E-01  7.77446797E-06  3.00742072E-04 -2.80016549E-03
 -9.89708505E-03 -1.14331114E-01 -1.18162383E-01  1.09786885E+00  1.00000000E+00
  5.89056768E-02  3.20461107E-01  7.53042062E-01  1.00000000E+00  1.00000000E+00
  3.34987264E-02  2.34800801E-01  8.13682958E-01  1.00000000E+00  1.00000000E+00
  3.34987264E-02  2.34800801E-01  8.13682958E-01  1.00000000E+00  1.00000000E+00
  3.34987264E-02  2.34800801E-01  8.13682958E-01  1.00000000E+00  1.00000000E+00
  3.34987264E-02  2.34800801E-01  8.13682958E-01  1.00000000E+00  1.00000000E+00
  7.01708743E-04  5.40299880E-03  2.74729510E-02  1.03514580E-01  2.79586579E-01
  4.51317241E-01  2.80626875E-01  7.77446797E-06  3.00742072E-04 -2.80016549E-03
 -9.89708505E-03 -1.14331114E-01 -1.18162383E-01  1.09786885E+00  1.00000000E+00
  5.89056768E-02  3.20461107E-01  7.53042062E-01  1.00000000E+00  1.00000000E+00
Coordinates of each shell                  R   N=         126
  1.85265966E+00 -1.05085132E+00 -1.75529577E-04  1.85265966E+00 -1.05085132E+00
 -1.75529577E-04  1.85265966E+00 -1.05085132E+00 -1.75529577E-04  1.85265966E+00
 -1.05085132E+00 -1.75529577E-04  1.85265966E+00 -1.05085132E+00 -1.75529577E-04
  1.85265966E+00 -1.05085132E+00 -1.75529577E-04 -2.15760754E+00 -5.04031518E-01
 -1.02643563E-05 -2.15760754E+00 -5.04031518E-01 -1.02643563E-05 -2.15760754E+00
 -5.04031518E-01 -1.02643563E-05 -2.15760754E+00 -5.04031518E-01 -1.02643563E-05
 -2.15760754E+00 -5.04031518E-01 -1.02643563E-05 -2.15760754E+00 -5.04031518E-01
 -1.02643563E-05 -1.12606867E+00  1.88446213E+00  1.31032163E-04 -1.12606867E+00
  1.88446213E+00  1.31032163E-04 -1.12606867E+00  1.88446213E+00  1.31032163E-04
 -1.12606867E+00  1.88446213E+00  1.31032163E-04 -1.12606867E+00  1.88446213E+00
  1.31032163E-04 -1.12606867E+00  1.88446213E+00  1.31032163E-04  1.45410483E+00
  1.50358976E+00  1.17980096E-04  1.45410483E+00  1.50358976E+00  1.17980096E-04
  1.45410483E+00  1.50358976E+00  1.17980096E-04  1.45410483E+00  1.50358976E+00
  1.17980096E-04  1.45410483E+00  1.50358976E+00  1.17980096E-04  1.45410483E+00
  1.50358976E+00  1.17980096E-04  2.79867926E+00  2.86303321E+00  3.53864975E-04
  2.79867926E+00  2.86303321E+00  3.53864975E-04  2.79867926E+00  2.86303321E+00
  3.53864975E-04  3.74007064E+00 -1.86785942E+00 -3.05426123E-04  3.74007064E+00
 -1.86785942E+00 -3.05426123E-04  3.74007064E+00 -1.86785942E+00 -3.05426123E-04
 -4.14893142E+00 -1.01603535E+00 -3.24191757E-05 -4.14893142E+00 -1.01603535E+00
 -3.24191757E-05 -4.14893142E+00 -1.01603535E+00 -3.24191757E-05 -1.95677528E+00
  3.76064723E+00  2.54297254E-04 -1.95677528E+00  3.76064723E+00  2.54297254E-04
 -1.95677528E+00  3.76064723E+00  2.54297254E-04 -2.89382530E-01 -2.32034139E+00
 -1.09658140E-04 -2.89382530E-01 -2.32034139E+00 -1.09658140E-04 -2.89382530E-01
 -2.32034139E+00 -1.09658140E-04 -2.89382530E-01 -2.32034139E+00 -1.09658140E-04
 -2.89382530E-01 -2.32034139E+00 -1.09658140E-04 -2.89382530E-01 -2.32034139E+00
 -1.09658140E-04
Num ILSW                                   I              100
ILSW                                       I   N=         100
           0           0           0           1           2           0
           0           0           0           0         402          -1
           5           0           0           0           2           0
           0           0           0           0           1           0
           1           0           0           0           0           0
           0           0      100000           0          -1           0
           0           0           0           0           0           0
           0           0           0           1           0           0
           0 -2000000000           1           0           0           0
           0           0           4          52           0           0
           0           0           5           0           0           0
           0           0           0           9           0           1
           0           0           0           0           0           0
           0           0           0           0           0           0
           0           0           0           0           0           0
           0           0           0           0           0           0
           0           0           0           0
Num RLSW                                   I               52
RLSW                                       R   N=          52
  8.00000000E-01  7.20000000E-01  1.00000000E+00  8.10000000E-01  2.00000000E-01
  0.00000000E+00  0.00000000E+00  1.00000000E+00  0.00000000E+00  0.00000000E+00
  0.00000000E+00  0.00000000E+00  1.00000000E+00  0.00000000E+00  0.00000000E+00
  0.00000000E+00  0.00000000E+00  1.00000000E+00  0.00000000E+00  0.00000000E+00
  0.00000000E+00  0.00000000E+00  1.00000000E+00  0.00000000E+00  0.00000000E+00
  0.00000000E+00  0.00000000E+00  1.00000000E+00  0.00000000E+00  0.00000000E+00
  0.00000000E+00  0.00000000E+00  1.00000000E+00  0.00000000E+00  0.00000000E+00
  0.00000000E+00  0.00000000E+00  0.00000000E+00  1.00000000E+00  1.00000000E+00
  0.00000000E+00  1.00000000E+00  0.00000000E+00  0.00000000E+00  0.00000000E+00
  0.00000000E+00  0.00000000E+00  0.00000000E+00  0.00000000E+00  0.00000000E+00
  0.00000000E+00  0.00000000E+00
MxBond                                     I                3
NBond                                      I   N=           9
           3           3           3           3           1           1
           1           1           2
IBond                                      I   N=          27
           4           6           9           3           7           9
           2           4           8           1           3           5
           4           0           0           1           0           0
           2           0           0           3           0           0
           1           2           0
RBond                                      R   N=          27
  1.00000000E+00  1.00000000E+00  1.00000000E+00  1.50000000E+00  1.00000000E+00
  1.00000000E+00  1.50000000E+00  1.00000000E+00  1.00000000E+00  1.00000000E+00
  1.00000000E+00  1.00000000E+00  1.00000000E+00  0.00000000E+00  0.00000000E+00
  1.00000000E+00  0.00000000E+00  0.00000000E+00  1.00000000E+00  0.00000000E+00
  0.00000000E+00  1.00000000E+00  0.00000000E+00  0.00000000E+00  1.00000000E+00
  1.00000000E+00  0.00000000E+00
Virial Ratio                               R      2.006848109495930E+00
SCF Energy                                 R     -2.262320012876252E+02
Total Energy                               R     -2.262320012876252E+02
RMS Force                                  R      7.602116314523466E-05
RMS Density                                R      3.595507317831605E-09
Job Status                                 I                1
Nuclear derivative order                   I                1
External E-field                           R   N=          35
  0.00000000E+00  0.00000000E+00  0.00000000E+00  0.00000000E+00  0.00000000E+00
  0.00000000E+00  0.00000000E+00  0.00000000E+00  0.00000000E+00  0.00000000E+00
  0.00000000E+00  0.00000000E+00  0.00000000E+00  0.00000000E+00  0.00000000E+00
  0.00000000E+00  0.00000000E+00  0.00000000E+00  0.00000000E+00  0.00000000E+00
  0.00000000E+00  0.00000000E+00  0.00000000E+00  0.00000000E+00  0.00000000E+00
  0.00000000E+00  0.00000000E+00  0.00000000E+00  0.00000000E+00  0.00000000E+00
  0.00000000E+00  0.00000000E+00  0.00000000E+00  0.00000000E+00  0.00000000E+00
IOpCl                                      I                0
IROHF                                      I                0
Alpha Orbital Energies                     R   N=          90
 -1.43880299E+01 -1.43044712E+01 -1.02365288E+01 -1.02138262E+01 -1.01946712E+01
 -1.01100515E+00 -8.67485563E-01 -7.39862586E-01 -6.13276009E-01 -5.86640510E-01
 -5.57688830E-01 -4.37492042E-01 -4.34680114E-01 -4.27742738E-01 -4.02086766E-01
 -2.80088604E-01 -2.65182150E-01 -2.29064447E-01  2.66753310E-02  4.53447607E-02
  6.76912671E-02  9.95433162E-02  1.04964080E-01  1.24381339E-01  2.09925485E-01
  2.26958076E-01  2.76209278E-01  3.06127941E-01  3.90028208E-01  4.17001556E-01
  4.64415917E-01  4.69598316E-01  4.93175136E-01  5.16943077E-01  5.46211852E-01
  5.63541896E-01  5.63555286E-01  5.93661234E-01  6.67070851E-01  7.00947985E-01
  7.08956339E-01  7.75163796E-01  7.78751590E-01  8.56032015E-01  8.59609674E-01
  8.62388592E-01  8.85684794E-01  9.27466548E-01  9.72532431E-01  1.05066829E+00
  1.06587473E+00  1.08090354E+00  1.11878293E+00  1.16248078E+00  1.19365023E+00
  1.22170250E+00  1.28996482E+00  1.43886285E+00  1.47507534E+00  1.50540155E+00
  1.53899557E+00  1.55529917E+00  1.60135448E+00  1.63419733E+00  1.64977693E+00
  1.67264454E+00  1.75504270E+00  1.78799364E+00  1.79405690E+00  1.83477681E+00
  1.87104980E+00  1.91754147E+00  1.94112731E+00  2.09112519E+00  2.09139402E+00
  2.13005841E+00  2.24438024E+00  2.26191095E+00  2.32771189E+00  2.41111604E+00
  2.41193572E+00  2.43873753E+00  2.49929972E+00  2.56235806E+00  2.65433865E+00
  2.69344146E+00  2.75731950E+00  2.82655278E+00  3.13814043E+00  3.39174680E+00
Alpha MO coefficients                      R   N=        8100
  1.11571423E-04  1.24384728E-04  6.42253559E-03  6.60451233E-05  8.89875275E-06
  2.31474312E-09 -2.98721674E-03  3.11025147E-03  5.05236280E-07  9.83716920E-05
 -7.49777655E-08 -1.51585266E-07  1.03429497E-03  1.16560261E-04  6.72770190E-06
  4.91664724E-05 -5.37534982E-03 -9.79463164E-05 -3.97320513E-04 -3.77222192E-08
 -4.15654561E-03 -7.69863108E-04  4.52699161E-08 -9.90961677E-05  2.66092691E-08
 -7.75694965E-09  3.43816341E-04 -1.52034108E-05  7.75218871E-05 -1.78155841E-05
  9.46838522E-03 -1.29098651E-05  1.23322065E-05 -4.85788323E-09  4.34293391E-03
 -4.68971167E-03 -2.95573091E-07  1.01370937E-06  1.36368630E-08  4.03341877E-08
 -9.49744062E-04  1.94386538E-04  9.96574754E-01  2.72445429E-02 -1.98825667E-02
  1.27013965E-05  2.30507128E-05  4.70638300E-08  4.97495017E-03  4.23077983E-03
  5.24083404E-07 -4.53922466E-04  1.44611329E-07  1.47890809E-07 -4.73752008E-05
  7.95732149E-04 -2.12396485E-03 -3.97917524E-04  1.37446273E-03  1.46254401E-03
  2.75119461E-07 -3.05393616E-04  1.00525136E-03  8.81733545E-05 -5.13244600E-04
 -5.43950710E-08 -4.99747915E-04 -1.19652571E-03 -4.16675634E-05 -9.59626305E-05
 -7.69322184E-09 -1.58220338E-04  1.57984832E-03 -5.45324789E-04  8.59510061E-05
  1.00703651E-08 -1.82921392E-04 -4.21687631E-04  3.44341779E-04 -1.97319710E-04
 -1.43640450E-04  9.35069844E-10 -7.59289229E-04 -1.60798092E-04 -4.58211636E-08
 -1.33602510E-04 -4.36075795E-08  3.11156999E-08  8.14040795E-05 -2.19621017E-04
  1.67143932E-04  1.38804850E-04  7.11274893E-03  2.42869499E-04  1.13207148E-04
 -3.93425054E-09 -4.71561436E-03 -9.84873922E-05  3.61581256E-07  2.34540134E-04
 -3.56743500E-08  1.35352034E-07 -4.45819307E-04 -1.30085802E-03  7.86030559E-05
  5.67536843E-05  1.06024549E-02 -3.00263242E-05  4.77344157E-05 -6.24734390E-09
  6.61313416E-03 -7.16532285E-04 -3.39348259E-08 -8.82330877E-05  8.34226224E-08
  3.46504394E-09  2.75617481E-04  1.23077107E-03  3.46113767E-05  7.99741213E-05
 -5.69252697E-03  2.07104057E-04  3.31543433E-04  3.44156062E-09 -2.69672237E-03
  4.34460689E-03  3.37361799E-07  4.70895538E-05  1.13596962E-08 -4.26172356E-08
  2.89456664E-04 -6.07745652E-05  1.17531881E-04 -4.71158275E-04  8.94824380E-04
 -1.17937102E-05  2.57125789E-04  3.19161645E-08 -2.01309812E-04  9.77710332E-04
  1.04332038E-08 -1.42475347E-04 -4.09020039E-08  1.04555507E-08  2.27015542E-04
 -6.63780225E-06 -3.33953835E-04  1.24071842E-04  6.50414151E-05 -1.50001895E-05
  2.77523193E-08 -2.72037774E-04  9.79343032E-04  4.92777704E-04  4.04732889E-04
 -1.09416178E-08 -4.10954268E-04  1.43711549E-03 -5.63795161E-04  3.85017064E-04
  2.42716631E-08 -3.32716249E-04 -1.58197119E-03  1.77768198E-04 -1.95479623E-05
 -2.19359718E-09  9.96696596E-01  2.71963435E-02 -2.32265925E-02  5.18341415E-04
  2.55213979E-03  5.20739341E-08 -3.71317477E-04 -6.38032985E-03 -1.59867180E-07
  4.54467349E-05 -4.04764518E-09 -1.55152805E-08  3.09068656E-04  8.84924130E-05
  9.96236751E-01  2.94132322E-02 -2.27198553E-03 -2.21036661E-04  6.28210506E-04
  1.99708123E-07 -3.07553238E-03  1.56583069E-03  3.68433934E-07 -2.21778736E-03
 -3.48977038E-07  3.06149666E-07  8.08345308E-04 -8.09056599E-04  9.59874164E-05
  1.77469528E-04 -4.63474665E-04  2.39142518E-04 -3.58199391E-04 -2.65715523E-08
  2.07758689E-03  1.37968739E-04 -4.59601595E-09 -1.59233720E-04  1.09272430E-08
  3.25519252E-08  8.05498425E-05 -1.27092859E-04  2.42563773E-04  1.37958447E-04
  1.68775455E-03  4.85778029E-04  9.78322494E-05 -5.04841926E-09  9.92408251E-04
 -3.26951906E-03 -2.60604243E-07 -2.72070940E-04 -5.71607461E-08  2.13315145E-08
  1.37879739E-05 -5.05642834E-04  1.62531280E-04  1.12907549E-03 -7.08212312E-03
 -3.18602672E-04  3.80967758E-04  2.92346451E-08  2.27936163E-03  5.77559036E-03
  6.77965928E-07  1.18204171E-03  8.91346199E-10 -3.57372779E-07  1.07998509E-03
  8.84548834E-06 -6.15551104E-04 -7.92512307E-04 -5.30830091E-05 -5.12627055E-04
 -6.04705921E-08 -3.25328593E-03  2.98256476E-03  2.39275355E-03 -1.08727671E-03
 -1.46848128E-07  3.88798402E-04  8.61704583E-04 -3.12160811E-05  1.94136814E-05
  1.15613569E-08  2.09659717E-04  1.32606655E-03 -2.48424316E-06  1.94963537E-04
  1.99340061E-08  6.83392276E-05  9.60238175E-04 -6.68326317E-03 -7.26896979E-04
 -4.63771475E-04  1.80320471E-08 -2.16186370E-03 -3.59436994E-03 -9.26089463E-09
  1.03403563E-03  6.23656228E-08  5.00922124E-09 -1.48716253E-04 -1.03780818E-03
 -3.56692645E-04 -1.31835196E-04  6.24770280E-03 -9.72732959E-05  1.39815889E-04
  3.54974866E-08 -6.40647283E-03  1.62485687E-03  3.98809034E-07 -5.56290695E-04
 -1.03587850E-07  5.20435817E-08  8.31626803E-05 -3.91346219E-04  1.46992132E-02
 -4.59440415E-04 -1.74190859E-04 -3.43532664E-04 -1.26929590E-03 -8.75879830E-08
 -2.48752800E-03  1.84602557E-03  1.76494313E-07  1.16615162E-03 -5.53379855E-08
 -1.15972102E-07  1.84688464E-04 -1.53109297E-03  9.96187272E-01  2.98752110E-02