 Entering Gaussian System, Link 0=g16
 Initial command:
 /APL/ISV/x86_64/gaussian/16/C.01/g16/l1.exe "/scr/yagi/imidazole.7113/Gau-7123.inp" -scrdir="/scr/yagi/imidazole.7113/"
 Entering Link 1 = /APL/ISV/x86_64/gaussian/16/C.01/g16/l1.exe PID=      7124.
  
 Copyright (c) 1988-2019, Gaussian, Inc.  All Rights Reserved.
  
 This is part of the Gaussian(R) 16 program.  It is based on
 the Gaussian(R) 09 system (copyright 2009, Gaussian, Inc.),
 the Gaussian(R) 03 system (copyright 2003, Gaussian, Inc.),
 the Gaussian(R) 98 system (copyright 1998, Gaussian, Inc.),
 the Gaussian(R) 94 system (copyright 1995, Gaussian, Inc.),
 the Gaussian 92(TM) system (copyright 1992, Gaussian, Inc.),
 the Gaussian 90(TM) system (copyright 1990, Gaussian, Inc.),
 the Gaussian 88(TM) system (copyright 1988, Gaussian, Inc.),
 the Gaussian 86(TM) system (copyright 1986, Carnegie Mellon
 University), and the Gaussian 82(TM) system (copyright 1983,
 Carnegie Mellon University). Gaussian is a federally registered
 trademark of Gaussian, Inc.
  
 This software contains proprietary and confidential information,
 including trade secrets, belonging to Gaussian, Inc.
  
 This software is provided under written license and may be
 used, copied, transmitted, or stored only in accord with that
 written license.
  
 The following legend is applicable only to US Government
 contracts under FAR:
  
                    RESTRICTED RIGHTS LEGEND
  
 Use, reproduction and disclosure by the US Government is
 subject to restrictions as set forth in subparagraphs (a)
 and (c) of the Commercial Computer Software - Restricted
 Rights clause in FAR 52.227-19.
  
 Gaussian, Inc.
 340 Quinnipiac St., Bldg. 40, Wallingford CT 06492
  
  
 ---------------------------------------------------------------
 Warning -- This program may not be used in any manner that
 competes with the business of Gaussian, Inc. or will provide
 assistance to any competitor of Gaussian, Inc.  The licensee
 of this program is prohibited from giving any competitor of
 Gaussian, Inc. access to this program.  By using this program,
 the user acknowledges that Gaussian, Inc. is engaged in the
 business of creating and licensing software in the field of
 computational chemistry and represents and warrants to the
 licensee that it is not a competitor of Gaussian, Inc. and that
 it will not use this program in any manner prohibited above.
 ---------------------------------------------------------------
  

 Cite this work as:
 Gaussian 16, Revision C.01,
 M. J. Frisch, G. W. Trucks, H. B. Schlegel, G. E. Scuseria, 
 M. A. Robb, J. R. Cheeseman, G. Scalmani, V. Barone, 
 G. A. Petersson, H. Nakatsuji, X. Li, M. Caricato, A. V. Marenich, 
 J. Bloino, B. G. Janesko, R. Gomperts, B. Mennucci, H. P. Hratchian, 
 J. V. Ortiz, A. F. Izmaylov, J. L. Sonnenberg, D. Williams-Young, 
 F. Ding, F. Lipparini, F. Egidi, J. Goings, B. Peng, A. Petrone, 
 T. Henderson, D. Ranasinghe, V. G. Zakrzewski, J. Gao, N. Rega, 
 G. Zheng, W. Liang, M. Hada, M. Ehara, K. Toyota, R. Fukuda, 
 J. Hasegawa, M. Ishida, T. Nakajima, Y. Honda, O. Kitao, H. Nakai, 
 T. Vreven, K. Throssell, J. A. Montgomery, Jr., J. E. Peralta, 
 F. Ogliaro, M. J. Bearpark, J. J. Heyd, E. N. Brothers, K. N. Kudin, 
 V. N. Staroverov, T. A. Keith, R. Kobayashi, J. Normand, 
 K. Raghavachari, A. P. Rendell, J. C. Burant, S. S. Iyengar, 
 J. Tomasi, M. Cossi, J. M. Millam, M. Klene, C. Adamo, R. Cammi, 
 J. W. Ochterski, R. L. Martin, K. Morokuma, O. Farkas, 
 J. B. Foresman, and D. J. Fox, Gaussian, Inc., Wallingford CT, 2019.
 
 ******************************************
 Gaussian 16:  ES64L-G16RevC.01  3-Jul-2019
                24-Jul-2021 
 ******************************************
 %NprocShared=16
 Will use up to   16 processors via shared memory.
 %chk=imidazole.chk
 %mem=1gb
 ----------------------------
 #P B3LYP/cc-pVDZ opt pop=esp
 ----------------------------
 1/18=20,19=15,26=3,38=1/1,3;
 2/9=110,12=2,17=6,18=5,40=1/2;
 3/5=16,11=2,25=1,30=1,71=1,74=-5/1,2,3;
 4//1;
 5/5=2,38=5/2;
 6/7=2,8=2,9=2,10=2,15=8,28=1/1,2;
 7//1,2,3,16;
 1/18=20,19=15,26=3/3(2);
 2/9=110/2;
 99//99;
 2/9=110/2;
 3/5=16,11=2,25=1,30=1,71=1,74=-5/1,2,3;
 4/5=5,16=3,69=1/1;
 5/5=2,38=5/2;
 7//1,2,3,16;
 1/18=20,19=15,26=3/3(-5);
 2/9=110/2;
 6/7=2,8=2,9=2,10=2,15=8,19=2,28=1/1,2;
 99/9=1/99;
 Leave Link    1 at Sat Jul 24 12:35:05 2021, MaxMem=   134217728 cpu:               1.0 elap:               0.1
 (Enter /APL/ISV/x86_64/gaussian/16/C.01/g16/l101.exe)
 -----------------------
 B3LYP/cc-pVDZ imidazole
 -----------------------
 Symbolic Z-matrix:
 Charge =  0 Multiplicity = 1
 C                    -1.5457   -1.38321  -0.14843 
 C                     0.28004  -0.01241  -0.14843 
 C                    -0.87701   0.77904  -0.14854 
 N                    -1.98543  -0.0627   -0.14844 
 H                    -2.92576   0.228    -0.14866 
 H                    -2.24729  -2.21644  -0.14833 
 H                     1.30461   0.34408  -0.14846 
 H                    -0.98594   1.86281  -0.14868 
 N                    -0.14395  -1.38321  -0.14843 
 
 ITRead=  0  0  0  0  0  0  0  0  0
 MicOpt= -1 -1 -1 -1 -1 -1 -1 -1 -1
 NAtoms=      9 NQM=        9 NQMF=       0 NMMI=      0 NMMIF=      0
                NMic=       0 NMicF=      0.
                    Isotopes and Nuclear Properties:
 (Nuclear quadrupole moments (NQMom) in fm**2, nuclear magnetic moments (NMagM)
  in nuclear magnetons)

  Atom         1           2           3           4           5           6           7           8           9
 IAtWgt=          12          12          12          14           1           1           1           1          14
 AtmWgt=  12.0000000  12.0000000  12.0000000  14.0030740   1.0078250   1.0078250   1.0078250   1.0078250  14.0030740
 NucSpn=           0           0           0           2           1           1           1           1           2
 AtZEff=  -0.0000000  -0.0000000  -0.0000000  -0.0000000  -0.0000000  -0.0000000  -0.0000000  -0.0000000  -0.0000000
 NQMom=    0.0000000   0.0000000   0.0000000   2.0440000   0.0000000   0.0000000   0.0000000   0.0000000   2.0440000
 NMagM=    0.0000000   0.0000000   0.0000000   0.4037610   2.7928460   2.7928460   2.7928460   2.7928460   0.4037610
 AtZNuc=   6.0000000   6.0000000   6.0000000   7.0000000   1.0000000   1.0000000   1.0000000   1.0000000   7.0000000
 Leave Link  101 at Sat Jul 24 12:35:05 2021, MaxMem=   134217728 cpu:               6.6 elap:               0.5
 (Enter /APL/ISV/x86_64/gaussian/16/C.01/g16/l103.exe)

 GradGradGradGradGradGradGradGradGradGradGradGradGradGradGradGradGradGrad
 Berny optimization.
 Initialization pass.
                           ----------------------------
                           !    Initial Parameters    !
                           ! (Angstroms and Degrees)  !
 --------------------------                            --------------------------
 ! Name  Definition              Value          Derivative Info.                !
 --------------------------------------------------------------------------------
 ! R1    R(1,4)                  1.3918         estimate D2E/DX2                !
 ! R2    R(1,6)                  1.0893         estimate D2E/DX2                !
 ! R3    R(1,9)                  1.4018         estimate D2E/DX2                !
 ! R4    R(2,3)                  1.4018         estimate D2E/DX2                !
 ! R5    R(2,7)                  1.0848         estimate D2E/DX2                !
 ! R6    R(2,9)                  1.4349         estimate D2E/DX2                !
 ! R7    R(3,4)                  1.3918         estimate D2E/DX2                !
 ! R8    R(3,8)                  1.0892         estimate D2E/DX2                !
 ! R9    R(4,5)                  0.9842         estimate D2E/DX2                !
 ! A1    A(4,1,6)              121.4847         estimate D2E/DX2                !
 ! A2    A(4,1,9)              108.4177         estimate D2E/DX2                !
 ! A3    A(6,1,9)              130.0976         estimate D2E/DX2                !
 ! A4    A(3,2,7)              126.4419         estimate D2E/DX2                !
 ! A5    A(3,2,9)              107.1858         estimate D2E/DX2                !
 ! A6    A(7,2,9)              126.3724         estimate D2E/DX2                !
 ! A7    A(2,3,4)              108.4137         estimate D2E/DX2                !
 ! A8    A(2,3,8)              130.1121         estimate D2E/DX2                !
 ! A9    A(4,3,8)              121.4742         estimate D2E/DX2                !
 ! A10   A(1,4,3)              108.7956         estimate D2E/DX2                !
 ! A11   A(1,4,5)              125.5966         estimate D2E/DX2                !
 ! A12   A(3,4,5)              125.6078         estimate D2E/DX2                !
 ! A13   A(1,9,2)              107.1873         estimate D2E/DX2                !
 ! D1    D(6,1,4,3)            179.9982         estimate D2E/DX2                !
 ! D2    D(6,1,4,5)             -0.0211         estimate D2E/DX2                !
 ! D3    D(9,1,4,3)              0.0039         estimate D2E/DX2                !
 ! D4    D(9,1,4,5)            179.9846         estimate D2E/DX2                !
 ! D5    D(4,1,9,2)              0.0004         estimate D2E/DX2                !
 ! D6    D(6,1,9,2)           -179.9933         estimate D2E/DX2                !
 ! D7    D(7,2,3,4)           -179.9992         estimate D2E/DX2                !
 ! D8    D(7,2,3,8)              0.0017         estimate D2E/DX2                !
 ! D9    D(9,2,3,4)              0.0069         estimate D2E/DX2                !
 ! D10   D(9,2,3,8)           -179.9922         estimate D2E/DX2                !
 ! D11   D(3,2,9,1)             -0.0044         estimate D2E/DX2                !
 ! D12   D(7,2,9,1)           -179.9984         estimate D2E/DX2                !
 ! D13   D(2,3,4,1)             -0.0067         estimate D2E/DX2                !
 ! D14   D(2,3,4,5)           -179.9874         estimate D2E/DX2                !
 ! D15   D(8,3,4,1)            179.9924         estimate D2E/DX2                !
 ! D16   D(8,3,4,5)              0.0117         estimate D2E/DX2                !
 --------------------------------------------------------------------------------
 Trust Radius=3.00D-01 FncErr=1.00D-07 GrdErr=1.00D-06 EigMax=2.50D+02 EigMin=1.00D-04
 Number of steps in this run=     48 maximum allowed number of steps=    100.
 GradGradGradGradGradGradGradGradGradGradGradGradGradGradGradGradGradGrad

 Leave Link  103 at Sat Jul 24 12:35:05 2021, MaxMem=   134217728 cpu:               0.1 elap:               0.0
 (Enter /APL/ISV/x86_64/gaussian/16/C.01/g16/l202.exe)
                          Input orientation:                          
 ---------------------------------------------------------------------
 Center     Atomic      Atomic             Coordinates (Angstroms)
 Number     Number       Type             X           Y           Z
 ---------------------------------------------------------------------
      1          6           0       -1.545705   -1.383208   -0.148432
      2          6           0        0.280043   -0.012412   -0.148432
      3          6           0       -0.877014    0.779041   -0.148536
      4          7           0       -1.985432   -0.062700   -0.148441
      5          1           0       -2.925760    0.228001   -0.148658
      6          1           0       -2.247293   -2.216441   -0.148334
      7          1           0        1.304606    0.344080   -0.148457
      8          1           0       -0.985936    1.862813   -0.148683
      9          7           0       -0.143955   -1.383208   -0.148432
 ---------------------------------------------------------------------
                    Distance matrix (angstroms):
                    1          2          3          4          5
     1  C    0.000000
     2  C    2.283076   0.000000
     3  C    2.263287   1.401848   0.000000
     4  N    1.391798   2.266033   1.391804   0.000000
     5  H    2.121449   3.214805   2.121557   0.984238   0.000000
     6  H    1.089267   3.353382   3.294021   2.169602   2.536851
     7  H    3.332836   1.084811   2.224558   3.315090   4.231958
     8  H    3.293933   2.262559   1.089232   2.169468   2.536834
     9  N    1.401750   1.434871   2.283133   2.266005   3.214721
                    6          7          8          9
     6  H    0.000000
     7  H    4.378613   0.000000
     8  H    4.269817   2.748296   0.000000
     9  N    2.262368   2.254297   3.353444   0.000000
 Stoichiometry    C3H4N2
 Framework group  C1[X(C3H4N2)]
 Deg. of freedom    21
 Full point group                 C1      NOp   1
 Largest Abelian subgroup         C1      NOp   1
 Largest concise Abelian subgroup C1      NOp   1
                         Standard orientation:                         
 ---------------------------------------------------------------------
 Center     Atomic      Atomic             Coordinates (Angstroms)
 Number     Number       Type             X           Y           Z
 ---------------------------------------------------------------------
      1          6           0        1.048949   -0.565403   -0.000030
      2          6           0       -1.213577   -0.259766   -0.000030
      3          6           0       -0.589815    0.995661    0.000074
      4          7           0        0.788421    0.801793   -0.000021
      5          1           0        1.467353    1.514376    0.000196
      6          1           0        2.067924   -0.950361   -0.000128
      7          1           0       -2.281838   -0.448539   -0.000005
      8          1           0       -1.023574    1.994800    0.000221
      9          7           0       -0.174594   -1.249397   -0.000030
 ---------------------------------------------------------------------
 Rotational constants (GHZ):           9.2661514           8.8356459           4.5228897
 Leave Link  202 at Sat Jul 24 12:35:05 2021, MaxMem=   134217728 cpu:               0.1 elap:               0.0
 (Enter /APL/ISV/x86_64/gaussian/16/C.01/g16/l301.exe)
 Standard basis: CC-pVDZ (5D, 7F)
 Ernie: Thresh=  0.10000D-02 Tol=  0.10000D-05 Strict=F.
 Ernie:  10 primitive shells out of 130 were deleted.
 There are    95 symmetry adapted cartesian basis functions of A   symmetry.
 There are    90 symmetry adapted basis functions of A   symmetry.
    90 basis functions,   193 primitive gaussians,    95 cartesian basis functions
    18 alpha electrons       18 beta electrons
       nuclear repulsion energy       158.8271466587 Hartrees.
 IExCor=  402 DFT=T Ex+Corr=B3LYP ExCW=0 ScaHFX=  0.200000
 ScaDFX=  0.800000  0.720000  1.000000  0.810000 ScalE2=  1.000000  1.000000
 IRadAn=      5 IRanWt=     -1 IRanGd=            0 ICorTp=0 IEmpDi=  4
 NAtoms=    9 NActive=    9 NUniq=    9 SFac= 1.00D+00 NAtFMM=   60 NAOKFM=F Big=F
 Integral buffers will be    131072 words long.
 Raffenetti 2 integral format.
 Two-electron integral symmetry is turned on.
 Leave Link  301 at Sat Jul 24 12:35:05 2021, MaxMem=   134217728 cpu:               0.8 elap:               0.1
 (Enter /APL/ISV/x86_64/gaussian/16/C.01/g16/l302.exe)
 NPDir=0 NMtPBC=     1 NCelOv=     1 NCel=       1 NClECP=     1 NCelD=      1
         NCelK=      1 NCelE2=     1 NClLst=     1 CellRange=     0.0.
 One-electron integrals computed using PRISM.
 One-electron integral symmetry used in STVInt
 NBasis=    90 RedAO= T EigKep=  2.00D-03  NBF=    90
 NBsUse=    90 1.00D-06 EigRej= -1.00D+00 NBFU=    90
 Precomputing XC quadrature grid using
 IXCGrd= 4 IRadAn=           5 IRanWt=          -1 IRanGd=           0 AccXCQ= 0.00D+00.
 Generated NRdTot=       0 NPtTot=           0 NUsed=           0 NTot=          32
 NSgBfM=    95    95    95    95    95 MxSgAt=     9 MxSgA2=     9.
 Leave Link  302 at Sat Jul 24 12:35:05 2021, MaxMem=   134217728 cpu:               1.7 elap:               0.1
 (Enter /APL/ISV/x86_64/gaussian/16/C.01/g16/l303.exe)
 DipDrv:  MaxL=1.
 Leave Link  303 at Sat Jul 24 12:35:06 2021, MaxMem=   134217728 cpu:               0.3 elap:               0.0
 (Enter /APL/ISV/x86_64/gaussian/16/C.01/g16/l401.exe)
 ExpMin= 1.22D-01 ExpMax= 9.05D+03 ExpMxC= 3.09D+02 IAcc=3 IRadAn=         5 AccDes= 0.00D+00
 Harris functional with IExCor=  402 and IRadAn=       5 diagonalized for initial guess.
 HarFok:  IExCor=  402 AccDes= 0.00D+00 IRadAn=         5 IDoV= 1 UseB2=F ITyADJ=14
 ICtDFT=  3500011 ScaDFX=  1.000000  1.000000  1.000000  1.000000
 FoFCou: FMM=F IPFlag=           0 FMFlag=      100000 FMFlg1=           0
         NFxFlg=           0 DoJE=T BraDBF=F KetDBF=T FulRan=T
         wScrn=  0.000000 ICntrl=       500 IOpCl=  0 I1Cent=   200000004 NGrid=           0
         NMat0=    1 NMatS0=      1 NMatT0=    0 NMatD0=    1 NMtDS0=    0 NMtDT0=    0
 Petite list used in FoFCou.
 Harris En= -226.183976923472    
 JPrj=0 DoOrth=F DoCkMO=F.
 Leave Link  401 at Sat Jul 24 12:35:06 2021, MaxMem=   134217728 cpu:               2.9 elap:               0.2
 (Enter /APL/ISV/x86_64/gaussian/16/C.01/g16/l502.exe)
 Keep R1 ints in memory in canonical form, NReq=23083712.
 FoFCou: FMM=F IPFlag=           0 FMFlag=           0 FMFlg1=           0
         NFxFlg=           0 DoJE=F BraDBF=F KetDBF=F FulRan=T
         wScrn=  0.000000 ICntrl=       600 IOpCl=  0 I1Cent=           0 NGrid=           0
         NMat0=    1 NMatS0=   4095 NMatT0=    0 NMatD0=    1 NMtDS0=    0 NMtDT0=    0
 Symmetry not used in FoFCou.
 Two-electron integral symmetry not used.
 Closed shell SCF:
 Using DIIS extrapolation, IDIIS=  1040.
 NGot=   134217728 LenX=   125810262 LenY=   125800796
 Requested convergence on RMS density matrix=1.00D-08 within 128 cycles.
 Requested convergence on MAX density matrix=1.00D-06.
 Requested convergence on             energy=1.00D-06.
 No special actions if energy rises.
 Integral accuracy reduced to 1.0D-05 until final iterations.

 Cycle   1  Pass 0  IDiag  1:
 E= -226.133734362136    
 DIIS: error= 2.13D-02 at cycle   1 NSaved=   1.
 NSaved= 1 IEnMin= 1 EnMin= -226.133734362136     IErMin= 1 ErrMin= 2.13D-02
 ErrMax= 2.13D-02  0.00D+00 EMaxC= 1.00D-01 BMatC= 7.25D-02 BMatP= 7.25D-02
 IDIUse=3 WtCom= 7.87D-01 WtEn= 2.13D-01
 Coeff-Com:  0.100D+01
 Coeff-En:   0.100D+01
 Coeff:      0.100D+01
 Gap=     0.217 Goal=   None    Shift=    0.000
 GapD=    0.217 DampG=1.000 DampE=0.500 DampFc=0.5000 IDamp=-1.
 Damping current iteration by 5.00D-01
 RMSDP=7.44D-03 MaxDP=1.27D-01              OVMax= 2.27D-01

 Cycle   2  Pass 0  IDiag  1:
 E= -226.160440154769     Delta-E=       -0.026705792633 Rises=F Damp=T
 DIIS: error= 9.47D-03 at cycle   2 NSaved=   2.
 NSaved= 2 IEnMin= 2 EnMin= -226.160440154769     IErMin= 2 ErrMin= 9.47D-03
 ErrMax= 9.47D-03  0.00D+00 EMaxC= 1.00D-01 BMatC= 1.18D-02 BMatP= 7.25D-02
 IDIUse=3 WtCom= 9.05D-01 WtEn= 9.47D-02
 Coeff-Com:  0.188D+00 0.812D+00
 Coeff-En:   0.287D+00 0.713D+00
 Coeff:      0.198D+00 0.802D+00
 Gap=     0.313 Goal=   None    Shift=    0.000
 RMSDP=2.00D-03 MaxDP=4.13D-02 DE=-2.67D-02 OVMax= 1.63D-01

 Cycle   3  Pass 0  IDiag  1:
 E= -226.204891878184     Delta-E=       -0.044451723415 Rises=F Damp=F
 DIIS: error= 1.16D-02 at cycle   3 NSaved=   3.
 NSaved= 3 IEnMin= 3 EnMin= -226.204891878184     IErMin= 2 ErrMin= 9.47D-03
 ErrMax= 1.16D-02  0.00D+00 EMaxC= 1.00D-01 BMatC= 1.29D-02 BMatP= 1.18D-02
 IDIUse=3 WtCom= 8.84D-01 WtEn= 1.16D-01
 Coeff-Com:  0.310D-01 0.504D+00 0.465D+00
 Coeff-En:   0.000D+00 0.000D+00 0.100D+01
 Coeff:      0.274D-01 0.445D+00 0.527D+00
 Gap=     0.241 Goal=   None    Shift=    0.000
 RMSDP=1.33D-03 MaxDP=3.01D-02 DE=-4.45D-02 OVMax= 5.71D-02

 Cycle   4  Pass 0  IDiag  1:
 E= -226.214922509394     Delta-E=       -0.010030631211 Rises=F Damp=F
 DIIS: error= 5.87D-03 at cycle   4 NSaved=   4.
 NSaved= 4 IEnMin= 4 EnMin= -226.214922509394     IErMin= 4 ErrMin= 5.87D-03
 ErrMax= 5.87D-03  0.00D+00 EMaxC= 1.00D-01 BMatC= 2.48D-03 BMatP= 1.18D-02
 IDIUse=3 WtCom= 9.41D-01 WtEn= 5.87D-02
 Coeff-Com:  0.583D-02 0.118D+00 0.322D+00 0.554D+00
 Coeff-En:   0.000D+00 0.000D+00 0.196D+00 0.804D+00
 Coeff:      0.549D-02 0.111D+00 0.315D+00 0.568D+00
 Gap=     0.242 Goal=   None    Shift=    0.000
 RMSDP=4.80D-04 MaxDP=9.81D-03 DE=-1.00D-02 OVMax= 2.11D-02

 Cycle   5  Pass 0  IDiag  1:
 E= -226.217117796208     Delta-E=       -0.002195286814 Rises=F Damp=F
 DIIS: error= 1.16D-03 at cycle   5 NSaved=   5.
 NSaved= 5 IEnMin= 5 EnMin= -226.217117796208     IErMin= 5 ErrMin= 1.16D-03
 ErrMax= 1.16D-03  0.00D+00 EMaxC= 1.00D-01 BMatC= 1.09D-04 BMatP= 2.48D-03
 IDIUse=3 WtCom= 9.88D-01 WtEn= 1.16D-02
 Coeff-Com:  0.180D-02 0.278D-01 0.137D+00 0.312D+00 0.521D+00
 Coeff-En:   0.000D+00 0.000D+00 0.000D+00 0.000D+00 0.100D+01
 Coeff:      0.178D-02 0.275D-01 0.136D+00 0.309D+00 0.526D+00
 Gap=     0.242 Goal=   None    Shift=    0.000
 RMSDP=1.33D-04 MaxDP=3.03D-03 DE=-2.20D-03 OVMax= 6.32D-03

 Cycle   6  Pass 0  IDiag  1:
 E= -226.217213003990     Delta-E=       -0.000095207782 Rises=F Damp=F
 DIIS: error= 3.89D-04 at cycle   6 NSaved=   6.
 NSaved= 6 IEnMin= 6 EnMin= -226.217213003990     IErMin= 6 ErrMin= 3.89D-04
 ErrMax= 3.89D-04  0.00D+00 EMaxC= 1.00D-01 BMatC= 1.57D-05 BMatP= 1.09D-04
 IDIUse=3 WtCom= 9.96D-01 WtEn= 3.89D-03
 Coeff-Com: -0.140D-03-0.381D-02 0.270D-01 0.879D-01 0.314D+00 0.574D+00
 Coeff-En:   0.000D+00 0.000D+00 0.000D+00 0.000D+00 0.135D+00 0.865D+00
 Coeff:     -0.139D-03-0.380D-02 0.269D-01 0.876D-01 0.314D+00 0.576D+00
 Gap=     0.242 Goal=   None    Shift=    0.000
 RMSDP=4.01D-05 MaxDP=1.02D-03 DE=-9.52D-05 OVMax= 2.13D-03

 Cycle   7  Pass 0  IDiag  1:
 E= -226.217228966262     Delta-E=       -0.000015962272 Rises=F Damp=F
 DIIS: error= 4.74D-05 at cycle   7 NSaved=   7.
 NSaved= 7 IEnMin= 7 EnMin= -226.217228966262     IErMin= 7 ErrMin= 4.74D-05
 ErrMax= 4.74D-05  0.00D+00 EMaxC= 1.00D-01 BMatC= 2.30D-07 BMatP= 1.57D-05
 IDIUse=1 WtCom= 1.00D+00 WtEn= 0.00D+00
 Coeff-Com:  0.803D-05-0.248D-02 0.107D-01 0.359D-01 0.136D+00 0.267D+00
 Coeff-Com:  0.553D+00
 Coeff:      0.803D-05-0.248D-02 0.107D-01 0.359D-01 0.136D+00 0.267D+00
 Coeff:      0.553D+00
 Gap=     0.242 Goal=   None    Shift=    0.000
 RMSDP=5.46D-06 MaxDP=1.71D-04 DE=-1.60D-05 OVMax= 2.45D-04

 Initial convergence to 1.0D-05 achieved.  Increase integral accuracy.
 Cycle   8  Pass 1  IDiag  1:
 E= -226.217222798217     Delta-E=        0.000006168046 Rises=F Damp=F
 DIIS: error= 1.98D-05 at cycle   1 NSaved=   1.
 NSaved= 1 IEnMin= 1 EnMin= -226.217222798217     IErMin= 1 ErrMin= 1.98D-05
 ErrMax= 1.98D-05  0.00D+00 EMaxC= 1.00D-01 BMatC= 4.35D-08 BMatP= 4.35D-08
 IDIUse=1 WtCom= 1.00D+00 WtEn= 0.00D+00
 Coeff-Com:  0.100D+01
 Coeff:      0.100D+01
 Gap=     0.242 Goal=   None    Shift=    0.000
 RMSDP=5.46D-06 MaxDP=1.71D-04 DE= 6.17D-06 OVMax= 1.65D-04

 Cycle   9  Pass 1  IDiag  1:
 E= -226.217222729038     Delta-E=        0.000000069179 Rises=F Damp=F
 DIIS: error= 3.35D-05 at cycle   2 NSaved=   2.
 NSaved= 2 IEnMin= 1 EnMin= -226.217222798217     IErMin= 1 ErrMin= 1.98D-05
 ErrMax= 3.35D-05  0.00D+00 EMaxC= 1.00D-01 BMatC= 1.16D-07 BMatP= 4.35D-08
 IDIUse=1 WtCom= 1.00D+00 WtEn= 0.00D+00
 Coeff-Com:  0.622D+00 0.378D+00
 Coeff:      0.622D+00 0.378D+00
 Gap=     0.242 Goal=   None    Shift=    0.000
 RMSDP=3.12D-06 MaxDP=7.68D-05 DE= 6.92D-08 OVMax= 1.30D-04

 Cycle  10  Pass 1  IDiag  1:
 E= -226.217222836650     Delta-E=       -0.000000107612 Rises=F Damp=F
 DIIS: error= 6.28D-06 at cycle   3 NSaved=   3.
 NSaved= 3 IEnMin= 3 EnMin= -226.217222836650     IErMin= 3 ErrMin= 6.28D-06
 ErrMax= 6.28D-06  0.00D+00 EMaxC= 1.00D-01 BMatC= 2.19D-09 BMatP= 4.35D-08
 IDIUse=1 WtCom= 1.00D+00 WtEn= 0.00D+00
 Coeff-Com:  0.339D+00 0.225D+00 0.436D+00
 Coeff:      0.339D+00 0.225D+00 0.436D+00
 Gap=     0.242 Goal=   None    Shift=    0.000
 RMSDP=5.17D-07 MaxDP=1.20D-05 DE=-1.08D-07 OVMax= 2.61D-05

 Cycle  11  Pass 1  IDiag  1:
 E= -226.217222838445     Delta-E=       -0.000000001795 Rises=F Damp=F
 DIIS: error= 2.26D-06 at cycle   4 NSaved=   4.
 NSaved= 4 IEnMin= 4 EnMin= -226.217222838445     IErMin= 4 ErrMin= 2.26D-06
 ErrMax= 2.26D-06  0.00D+00 EMaxC= 1.00D-01 BMatC= 2.75D-10 BMatP= 2.19D-09
 IDIUse=1 WtCom= 1.00D+00 WtEn= 0.00D+00
 Coeff-Com:  0.726D-02 0.229D-01 0.266D+00 0.704D+00
 Coeff:      0.726D-02 0.229D-01 0.266D+00 0.704D+00
 Gap=     0.242 Goal=   None    Shift=    0.000
 RMSDP=1.51D-07 MaxDP=3.66D-06 DE=-1.79D-09 OVMax= 6.55D-06

 Cycle  12  Pass 1  IDiag  1:
 E= -226.217222838685     Delta-E=       -0.000000000240 Rises=F Damp=F
 DIIS: error= 3.61D-07 at cycle   5 NSaved=   5.
 NSaved= 5 IEnMin= 5 EnMin= -226.217222838685     IErMin= 5 ErrMin= 3.61D-07
 ErrMax= 3.61D-07  0.00D+00 EMaxC= 1.00D-01 BMatC= 1.18D-11 BMatP= 2.75D-10
 IDIUse=1 WtCom= 1.00D+00 WtEn= 0.00D+00
 Coeff-Com: -0.112D-01 0.316D-02 0.112D+00 0.353D+00 0.543D+00
 Coeff:     -0.112D-01 0.316D-02 0.112D+00 0.353D+00 0.543D+00
 Gap=     0.242 Goal=   None    Shift=    0.000
 RMSDP=4.37D-08 MaxDP=1.02D-06 DE=-2.40D-10 OVMax= 1.68D-06

 Cycle  13  Pass 1  IDiag  1:
 E= -226.217222838695     Delta-E=       -0.000000000010 Rises=F Damp=F
 DIIS: error= 1.27D-07 at cycle   6 NSaved=   6.
 NSaved= 6 IEnMin= 6 EnMin= -226.217222838695     IErMin= 6 ErrMin= 1.27D-07
 ErrMax= 1.27D-07  0.00D+00 EMaxC= 1.00D-01 BMatC= 2.31D-12 BMatP= 1.18D-11
 IDIUse=1 WtCom= 1.00D+00 WtEn= 0.00D+00
 Coeff-Com: -0.729D-02-0.585D-03 0.264D-01 0.106D+00 0.322D+00 0.553D+00
 Coeff:     -0.729D-02-0.585D-03 0.264D-01 0.106D+00 0.322D+00 0.553D+00
 Gap=     0.242 Goal=   None    Shift=    0.000
 RMSDP=1.76D-08 MaxDP=4.55D-07 DE=-1.03D-11 OVMax= 8.80D-07

 Cycle  14  Pass 1  IDiag  1:
 E= -226.217222838697     Delta-E=       -0.000000000002 Rises=F Damp=F
 DIIS: error= 2.38D-08 at cycle   7 NSaved=   7.
 NSaved= 7 IEnMin= 7 EnMin= -226.217222838697     IErMin= 7 ErrMin= 2.38D-08
 ErrMax= 2.38D-08  0.00D+00 EMaxC= 1.00D-01 BMatC= 1.02D-13 BMatP= 2.31D-12
 IDIUse=1 WtCom= 1.00D+00 WtEn= 0.00D+00
 Coeff-Com: -0.173D-02-0.255D-03-0.863D-03 0.677D-02 0.571D-01 0.200D+00
 Coeff-Com:  0.738D+00
 Coeff:     -0.173D-02-0.255D-03-0.863D-03 0.677D-02 0.571D-01 0.200D+00
 Coeff:      0.738D+00
 Gap=     0.242 Goal=   None    Shift=    0.000
 RMSDP=3.81D-09 MaxDP=6.17D-08 DE=-1.88D-12 OVMax= 1.11D-07

 SCF Done:  E(RB3LYP) =  -226.217222839     A.U. after   14 cycles
            NFock= 14  Conv=0.38D-08     -V/T= 2.0088
 KE= 2.242523874081D+02 PE=-8.437195090777D+02 EE= 2.344227521722D+02
 Leave Link  502 at Sat Jul 24 12:35:07 2021, MaxMem=   134217728 cpu:              15.2 elap:               1.1
 (Enter /APL/ISV/x86_64/gaussian/16/C.01/g16/l601.exe)
 Copying SCF densities to generalized density rwf, IOpCl= 0 IROHF=0.

 **********************************************************************

            Population analysis using the SCF Density.

 **********************************************************************

 Orbital symmetries:
       Occupied  (A) (A) (A) (A) (A) (A) (A) (A) (A) (A) (A) (A)
                 (A) (A) (A) (A) (A) (A)
       Virtual   (A) (A) (A) (A) (A) (A) (A) (A) (A) (A) (A) (A)
                 (A) (A) (A) (A) (A) (A) (A) (A) (A) (A) (A) (A)
                 (A) (A) (A) (A) (A) (A) (A) (A) (A) (A) (A) (A)
                 (A) (A) (A) (A) (A) (A) (A) (A) (A) (A) (A) (A)
                 (A) (A) (A) (A) (A) (A) (A) (A) (A) (A) (A) (A)
                 (A) (A) (A) (A) (A) (A) (A) (A) (A) (A) (A) (A)
 The electronic state is 1-A.
 Alpha  occ. eigenvalues --  -14.39089 -14.31562 -10.24749 -10.22010 -10.20534
 Alpha  occ. eigenvalues --   -0.99157  -0.84622  -0.73510  -0.61299  -0.58643
 Alpha  occ. eigenvalues --   -0.55126  -0.43969  -0.42626  -0.41531  -0.41224
 Alpha  occ. eigenvalues --   -0.27064  -0.25623  -0.22765
 Alpha virt. eigenvalues --    0.01429   0.04937   0.05006   0.09589   0.10014
 Alpha virt. eigenvalues --    0.11845   0.18661   0.21109   0.27101   0.29937
 Alpha virt. eigenvalues --    0.38127   0.40531   0.46486   0.47349   0.47961
 Alpha virt. eigenvalues --    0.52032   0.52531   0.53606   0.56084   0.56354
 Alpha virt. eigenvalues --    0.66388   0.69197   0.70654   0.77769   0.78049
 Alpha virt. eigenvalues --    0.84713   0.84900   0.86012   0.90582   0.92031
 Alpha virt. eigenvalues --    0.96786   1.04569   1.06570   1.07374   1.07878
 Alpha virt. eigenvalues --    1.13856   1.17035   1.21854   1.27889   1.43330
 Alpha virt. eigenvalues --    1.44418   1.48733   1.53315   1.53654   1.60157
 Alpha virt. eigenvalues --    1.62837   1.63017   1.67004   1.72379   1.75725
 Alpha virt. eigenvalues --    1.77075   1.83574   1.84759   1.88878   1.92848
 Alpha virt. eigenvalues --    2.06294   2.08696   2.12424   2.19278   2.21747
 Alpha virt. eigenvalues --    2.28553   2.35333   2.38997   2.42428   2.48869
 Alpha virt. eigenvalues --    2.52880   2.59086   2.60014   2.69862   2.78087
 Alpha virt. eigenvalues --    3.08539   3.35571
          Condensed to atoms (all electrons):
               1          2          3          4          5          6
     1  C    4.760299  -0.129517  -0.101634   0.433982  -0.029473   0.392899
     2  C   -0.129517   4.724855   0.526625  -0.050733   0.009873   0.002966
     3  C   -0.101634   0.526625   4.885238   0.437623  -0.034502   0.005002
     4  N    0.433982  -0.050733   0.437623   5.970954   0.374541  -0.028291
     5  H   -0.029473   0.009873  -0.034502   0.374541   0.604907  -0.003513
     6  H    0.392899   0.002966   0.005002  -0.028291  -0.003513   0.625047
     7  H    0.004573   0.407074  -0.048519   0.003389  -0.000165  -0.000259
     8  H    0.006008  -0.034858   0.381928  -0.031910  -0.003946  -0.000343
     9  N    0.538858   0.496183  -0.077683  -0.067451   0.006022  -0.019181
               7          8          9
     1  C    0.004573   0.006008   0.538858
     2  C    0.407074  -0.034858   0.496183
     3  C   -0.048519   0.381928  -0.077683
     4  N    0.003389  -0.031910  -0.067451
     5  H   -0.000165  -0.003946   0.006022
     6  H   -0.000259  -0.000343  -0.019181
     7  H    0.661088  -0.002558  -0.022109
     8  H   -0.002558   0.682582   0.005670
     9  N   -0.022109   0.005670   6.391891
 Mulliken charges:
               1
     1  C    0.124005
     2  C    0.047533
     3  C    0.025923
     4  N   -0.042103
     5  H    0.076256
     6  H    0.025671
     7  H   -0.002513
     8  H   -0.002573
     9  N   -0.252198
 Sum of Mulliken charges =  -0.00000
 Mulliken charges with hydrogens summed into heavy atoms:
               1
     1  C    0.149676
     2  C    0.045020
     3  C    0.023349
     4  N    0.034153
     9  N   -0.252198
 Electronic spatial extent (au):  <R**2>=            296.9740
 Charge=             -0.0000 electrons
 Dipole moment (field-independent basis, Debye):
    X=              1.6847    Y=              3.3226    Z=              0.0004  Tot=              3.7252
 Quadrupole moment (field-independent basis, Debye-Ang):
   XX=            -22.0404   YY=            -29.5026   ZZ=            -31.6099
   XY=              0.5640   XZ=              0.0001   YZ=              0.0008
 Traceless Quadrupole moment (field-independent basis, Debye-Ang):
   XX=              5.6772   YY=             -1.7850   ZZ=             -3.8923
   XY=              0.5640   XZ=              0.0001   YZ=              0.0008
 Octapole moment (field-independent basis, Debye-Ang**2):
  XXX=              6.2996  YYY=             17.5315  ZZZ=              0.0002  XYY=              5.4076
  XXY=              1.2064  XXZ=              0.0004  XZZ=              1.5711  YZZ=              0.2889
  YYZ=              0.0017  XYZ=              0.0007
 Hexadecapole moment (field-independent basis, Debye-Ang**3):
 XXXX=           -156.1790 YYYY=           -175.0519 ZZZZ=            -31.8355 XXXY=              6.4676
 XXXZ=              0.0009 YYYX=              2.6684 YYYZ=             -0.0013 ZZZX=              0.0015
 ZZZY=             -0.0037 XXYY=            -49.1164 XXZZ=            -40.0625 YYZZ=            -36.4628
 XXYZ=              0.0009 YYXZ=              0.0006 ZZXY=              1.7058
 N-N= 1.588271466587D+02 E-N=-8.437195127183D+02  KE= 2.242523874081D+02
 No NMR shielding tensors so no spin-rotation constants.
 Leave Link  601 at Sat Jul 24 12:35:07 2021, MaxMem=   134217728 cpu:               1.1 elap:               0.1
 (Enter /APL/ISV/x86_64/gaussian/16/C.01/g16/l602.exe)
 FitSet:  NAtFit=     9 NAtPot=     9 NAtFrz=     0 MDM=    13 TotChg=   0.00000
 Merz-Kollman atomic radii used.

 **********************************************************************

            Electrostatic Properties Using The SCF Density.

 **********************************************************************

       Atomic Center    1 is at   1.048949 -0.565403 -0.000030
       Atomic Center    2 is at  -1.213577 -0.259766 -0.000030
       Atomic Center    3 is at  -0.589815  0.995661  0.000074
       Atomic Center    4 is at   0.788421  0.801793 -0.000021
       Atomic Center    5 is at   1.467353  1.514376  0.000196
       Atomic Center    6 is at   2.067924 -0.950361 -0.000128
       Atomic Center    7 is at  -2.281838 -0.448539 -0.000005
       Atomic Center    8 is at  -1.023574  1.994800  0.000221
       Atomic Center    9 is at  -0.174594 -1.249397 -0.000030
     567 points will be used for fitting atomic charges
 Fitting point charges to electrostatic potential
 Charges from ESP fit, RMS=   0.00220 RRMS=   0.10213:
 ESP charges:
               1
     1  C    0.068528
     2  C    0.048242
     3  C   -0.248219
     4  N   -0.118495
     5  H    0.269198
     6  H    0.129091
     7  H    0.128296
     8  H    0.158938
     9  N   -0.435577
 Sum of ESP charges =   0.00000
 ESP charges with hydrogens summed into heavy atoms:
               1
     1  C    0.197618
     2  C    0.176537
     3  C   -0.089281
     4  N    0.150703
     9  N   -0.435577
 Charge=   0.00000 Dipole=     1.6758     3.3395     0.0003 Tot=     3.7364
 -----------------------------------------------------------------

              Electrostatic Properties (Atomic Units)

 -----------------------------------------------------------------
    Center     Electric         -------- Electric Field --------
               Potential          X             Y             Z
 -----------------------------------------------------------------
    1 Atom    -14.692802
    2 Atom    -14.737154
    3 Atom    -14.722868
    4 Atom    -18.311765
    5 Atom     -0.977711
    6 Atom     -1.055049
    7 Atom     -1.082847
    8 Atom     -1.068189
    9 Atom    -18.397447
 -----------------------------------------------------------------
 Leave Link  602 at Sat Jul 24 12:35:07 2021, MaxMem=   134217728 cpu:               0.7 elap:               0.1
 (Enter /APL/ISV/x86_64/gaussian/16/C.01/g16/l701.exe)
 ... and contract with generalized density number  0.
 Compute integral first derivatives.
 Leave Link  701 at Sat Jul 24 12:35:07 2021, MaxMem=   134217728 cpu:               1.4 elap:               0.1
 (Enter /APL/ISV/x86_64/gaussian/16/C.01/g16/l702.exe)
 L702 exits ... SP integral derivatives will be done elsewhere.
 Leave Link  702 at Sat Jul 24 12:35:07 2021, MaxMem=   134217728 cpu:               0.3 elap:               0.0
 (Enter /APL/ISV/x86_64/gaussian/16/C.01/g16/l703.exe)
 Integral derivatives from FoFJK, PRISM(SPDF).
 Compute integral first derivatives, UseDBF=F ICtDFT=           0.
 Calling FoFJK, ICntrl=      2127 FMM=F ISym2X=0 I1Cent= 0 IOpClX= 0 NMat=1 NMatS=1 NMatT=0.
 FoFJK:  IHMeth= 1 ICntrl=    2127 DoSepK=F KAlg= 0 I1Cent=           0 FoldK=F
 IRaf=         0 NMat=       1 IRICut=       1 DoRegI=T DoRafI=F ISym2E= 0 IDoP0=0 IntGTp=1.
 FoFCou: FMM=F IPFlag=           0 FMFlag=      100000 FMFlg1=         800
         NFxFlg=           0 DoJE=F BraDBF=F KetDBF=F FulRan=T
         wScrn=  0.000000 ICntrl=      2127 IOpCl=  0 I1Cent=           0 NGrid=           0
         NMat0=    1 NMatS0=      1 NMatT0=    0 NMatD0=    1 NMtDS0=    0 NMtDT0=    0
 Symmetry not used in FoFCou.
 Leave Link  703 at Sat Jul 24 12:35:08 2021, MaxMem=   134217728 cpu:               6.6 elap:               0.4
 (Enter /APL/ISV/x86_64/gaussian/16/C.01/g16/l716.exe)
 Dipole        = 6.62797172D-01 1.30719419D+00 1.55724354D-04
 ***** Axes restored to original set *****
 -------------------------------------------------------------------
 Center     Atomic                   Forces (Hartrees/Bohr)
 Number     Number              X              Y              Z
 -------------------------------------------------------------------
      1        6           0.071355481    0.044649682    0.000003187
      2        6          -0.067986274   -0.029620311   -0.000014463
      3        6           0.009120984   -0.009011631    0.000008167
      4        7           0.045517279   -0.020157057   -0.000006242
      5        1          -0.026014859    0.009579463   -0.000002814
      6        1           0.006729395   -0.002039145   -0.000002476
      7        1           0.002995788   -0.006916341    0.000000447
      8        1          -0.002167757   -0.001235622    0.000003496
      9        7          -0.039550038    0.014750963    0.000010699
 -------------------------------------------------------------------
 Cartesian Forces:  Max     0.071355481 RMS     0.025740904
 Leave Link  716 at Sat Jul 24 12:35:08 2021, MaxMem=   134217728 cpu:               0.3 elap:               0.0
 (Enter /APL/ISV/x86_64/gaussian/16/C.01/g16/l103.exe)

 GradGradGradGradGradGradGradGradGradGradGradGradGradGradGradGradGradGrad
 Berny optimization.
 FormGI is forming the generalized inverse of G from B-inverse, IUseBI=4.
 Internal  Forces:  Max     0.070836354 RMS     0.017665868
 Search for a local minimum.
 Step number   1 out of a maximum of   48
 All quantities printed in internal units (Hartrees-Bohrs-Radians)
 RMS Force = .17666D-01 SwitMx=.10000D-02 MixMth= 1
 Mixed Optimization -- RFO/linear search
 Second derivative matrix not updated -- first step.
 ITU=  0
     Eigenvalues ---    0.01575   0.01745   0.01783   0.01800   0.01859
     Eigenvalues ---    0.01962   0.16000   0.16000   0.16000   0.16000
     Eigenvalues ---    0.22000   0.22893   0.34897   0.34902   0.35419
     Eigenvalues ---    0.38004   0.40686   0.44377   0.45726   0.46626
     Eigenvalues ---    0.50570
 RFO step:  Lambda=-2.93576127D-02 EMin= 1.57453650D-02
 Linear search not attempted -- first point.
 Iteration  1 RMS(Cart)=  0.05804513 RMS(Int)=  0.00130050
 Iteration  2 RMS(Cart)=  0.00132047 RMS(Int)=  0.00003096
 Iteration  3 RMS(Cart)=  0.00000121 RMS(Int)=  0.00003094
 Iteration  4 RMS(Cart)=  0.00000000 RMS(Int)=  0.00003094
 ITry= 1 IFail=0 DXMaxC= 1.83D-01 DCOld= 1.00D+10 DXMaxT= 3.00D-01 DXLimC= 3.00D+00 Rises=F
 Variable       Old X    -DE/DX   Delta X   Delta X   Delta X     New X
                                 (Linear)    (Quad)   (Total)
    R1        2.63012  -0.01980   0.00000  -0.03975  -0.03971   2.59041
    R2        2.05842  -0.00277   0.00000  -0.00733  -0.00733   2.05108
    R3        2.64892  -0.07084   0.00000  -0.15123  -0.15125   2.49767
    R4        2.64911  -0.02643   0.00000  -0.05186  -0.05187   2.59724
    R5        2.05000   0.00056   0.00000   0.00145   0.00145   2.05145
    R6        2.71151  -0.04180   0.00000  -0.09963  -0.09969   2.61183
    R7        2.63013  -0.02899   0.00000  -0.05380  -0.05375   2.57638
    R8        2.05835  -0.00101   0.00000  -0.00268  -0.00268   2.05567
    R9        1.85994   0.02768   0.00000   0.05174   0.05174   1.91168
    A1        2.12031  -0.00351   0.00000  -0.00135  -0.00136   2.11895
    A2        1.89225   0.02033   0.00000   0.07293   0.07295   1.96520
    A3        2.27063  -0.01681   0.00000  -0.07159  -0.07160   2.19903
    A4        2.20683  -0.00296   0.00000  -0.00219  -0.00217   2.20466
    A5        1.87074   0.02132   0.00000   0.08576   0.08570   1.95645
    A6        2.20561  -0.01836   0.00000  -0.08356  -0.08354   2.12208
    A7        1.89218  -0.01944   0.00000  -0.06518  -0.06514   1.82704
    A8        2.27088   0.01207   0.00000   0.04499   0.04497   2.31585
    A9        2.12012   0.00737   0.00000   0.02019   0.02017   2.14030
   A10        1.89884  -0.00815   0.00000  -0.02540  -0.02532   1.87353
   A11        2.19207   0.00544   0.00000   0.01991   0.01987   2.21194
   A12        2.19227   0.00271   0.00000   0.00549   0.00545   2.19772
   A13        1.87077  -0.01406   0.00000  -0.06810  -0.06820   1.80257
    D1        3.14156  -0.00000   0.00000  -0.00002  -0.00002   3.14154
    D2       -0.00037   0.00000   0.00000   0.00005   0.00005  -0.00032
    D3        0.00007  -0.00000   0.00000  -0.00002  -0.00002   0.00005
    D4        3.14132   0.00000   0.00000   0.00005   0.00005   3.14137
    D5        0.00001  -0.00000   0.00000  -0.00006  -0.00005  -0.00005
    D6       -3.14148  -0.00000   0.00000  -0.00006  -0.00006  -3.14154
    D7       -3.14158  -0.00000   0.00000  -0.00001  -0.00001  -3.14159
    D8        0.00003   0.00000   0.00000   0.00003   0.00003   0.00006
    D9        0.00012  -0.00001   0.00000  -0.00012  -0.00012  -0.00000
   D10       -3.14146  -0.00000   0.00000  -0.00008  -0.00009  -3.14154
   D11       -0.00008   0.00000   0.00000   0.00011   0.00011   0.00003
   D12       -3.14156  -0.00000   0.00000  -0.00001  -0.00000  -3.14157
   D13       -0.00012   0.00001   0.00000   0.00010   0.00009  -0.00002
   D14       -3.14137   0.00000   0.00000   0.00002   0.00002  -3.14135
   D15        3.14146   0.00000   0.00000   0.00006   0.00006   3.14152
   D16        0.00020  -0.00000   0.00000  -0.00001  -0.00001   0.00019
         Item               Value     Threshold  Converged?
 Maximum Force            0.070836     0.000450     NO 
 RMS     Force            0.017666     0.000300     NO 
 Maximum Displacement     0.182640     0.001800     NO 
 RMS     Displacement     0.058163     0.001200     NO 
 Predicted change in Energy=-1.585026D-02
 Lowest energy point so far.  Saving SCF results.
 GradGradGradGradGradGradGradGradGradGradGradGradGradGradGradGradGradGrad

 Leave Link  103 at Sat Jul 24 12:35:08 2021, MaxMem=   134217728 cpu:               0.3 elap:               0.1
 (Enter /APL/ISV/x86_64/gaussian/16/C.01/g16/l202.exe)
                          Input orientation:                          
 ---------------------------------------------------------------------
 Center     Atomic      Atomic             Coordinates (Angstroms)
 Number     Number       Type             X           Y           Z
 ---------------------------------------------------------------------
      1          6           0       -1.482384   -1.332742   -0.148423
      2          6           0        0.202899   -0.045801   -0.148469
      3          6           0       -0.889199    0.788641   -0.148523
      4          7           0       -1.964479   -0.049530   -0.148472
      5          1           0       -2.936204    0.231752   -0.148687
      6          1           0       -2.150644   -2.188014   -0.148331
      7          1           0        1.244845    0.258883   -0.148484
      8          1           0       -0.989797    1.871795   -0.148634
      9          7           0       -0.161484   -1.379021   -0.148381
 ---------------------------------------------------------------------
                    Distance matrix (angstroms):
                    1          2          3          4          5
     1  C    0.000000
     2  C    2.120471   0.000000
     3  C    2.202756   1.374398   0.000000
     4  N    1.370784   2.167381   1.363363   0.000000
     5  H    2.135704   3.151349   2.121404   1.011617   0.000000
     6  H    1.085386   3.182491   3.232912   2.146572   2.544086
     7  H    3.157696   1.085579   2.198815   3.224109   4.181136
     8  H    3.242175   2.258251   1.087816   2.154413   2.545239
     9  N    1.321710   1.382119   2.286554   2.240165   3.208373
                    6          7          8          9
     6  H    0.000000
     7  H    4.185290   0.000000
     8  H    4.222514   2.755922   0.000000
     9  N    2.147377   2.158817   3.354685   0.000000
 Stoichiometry    C3H4N2
 Framework group  C1[X(C3H4N2)]
 Deg. of freedom    21
 Full point group                 C1      NOp   1
 RotChk:  IX=0 Diff= 3.43D-03
 Largest Abelian subgroup         C1      NOp   1
 Largest concise Abelian subgroup C1      NOp   1
                         Standard orientation:                         
 ---------------------------------------------------------------------
 Center     Atomic      Atomic             Coordinates (Angstroms)
 Number     Number       Type             X           Y           Z
 ---------------------------------------------------------------------
      1          6           0        0.968255   -0.561848   -0.000038
      2          6           0       -1.130008   -0.255767    0.000008
      3          6           0       -0.580861    1.004157    0.000062
      4          7           0        0.766201    0.793963    0.000011
      5          1           0        1.478880    1.511916    0.000226
      6          1           0        1.967870   -0.984734   -0.000130
      7          1           0       -2.188747   -0.495672    0.000023
      8          1           0       -1.019169    1.999762    0.000173
      9          7           0       -0.163793   -1.244038   -0.000080
 ---------------------------------------------------------------------
 Rotational constants (GHZ):           9.8932100           9.2243924           4.7735511
 Leave Link  202 at Sat Jul 24 12:35:08 2021, MaxMem=   134217728 cpu:               0.1 elap:               0.0
 (Enter /APL/ISV/x86_64/gaussian/16/C.01/g16/l301.exe)
 Standard basis: CC-pVDZ (5D, 7F)
 Ernie: Thresh=  0.10000D-02 Tol=  0.10000D-05 Strict=F.
 Ernie:  10 primitive shells out of 130 were deleted.
 There are    95 symmetry adapted cartesian basis functions of A   symmetry.
 There are    90 symmetry adapted basis functions of A   symmetry.
    90 basis functions,   193 primitive gaussians,    95 cartesian basis functions
    18 alpha electrons       18 beta electrons
       nuclear repulsion energy       162.9705383567 Hartrees.
 IExCor=  402 DFT=T Ex+Corr=B3LYP ExCW=0 ScaHFX=  0.200000
 ScaDFX=  0.800000  0.720000  1.000000  0.810000 ScalE2=  1.000000  1.000000
 IRadAn=      5 IRanWt=     -1 IRanGd=            0 ICorTp=0 IEmpDi=  4
 NAtoms=    9 NActive=    9 NUniq=    9 SFac= 1.00D+00 NAtFMM=   60 NAOKFM=F Big=F
 Integral buffers will be    131072 words long.
 Raffenetti 2 integral format.
 Two-electron integral symmetry is turned on.
 Leave Link  301 at Sat Jul 24 12:35:08 2021, MaxMem=   134217728 cpu:               0.8 elap:               0.1
 (Enter /APL/ISV/x86_64/gaussian/16/C.01/g16/l302.exe)
 NPDir=0 NMtPBC=     1 NCelOv=     1 NCel=       1 NClECP=     1 NCelD=      1
         NCelK=      1 NCelE2=     1 NClLst=     1 CellRange=     0.0.
 One-electron integrals computed using PRISM.
 One-electron integral symmetry used in STVInt
 NBasis=    90 RedAO= T EigKep=  1.76D-03  NBF=    90
 NBsUse=    90 1.00D-06 EigRej= -1.00D+00 NBFU=    90
 Precomputing XC quadrature grid using
 IXCGrd= 4 IRadAn=           5 IRanWt=          -1 IRanGd=           0 AccXCQ= 0.00D+00.
 Generated NRdTot=       0 NPtTot=           0 NUsed=           0 NTot=          32
 NSgBfM=    95    95    95    95    95 MxSgAt=     9 MxSgA2=     9.
 Leave Link  302 at Sat Jul 24 12:35:08 2021, MaxMem=   134217728 cpu:               1.7 elap:               0.1
 (Enter /APL/ISV/x86_64/gaussian/16/C.01/g16/l303.exe)
 DipDrv:  MaxL=1.
 Leave Link  303 at Sat Jul 24 12:35:08 2021, MaxMem=   134217728 cpu:               0.3 elap:               0.0
 (Enter /APL/ISV/x86_64/gaussian/16/C.01/g16/l401.exe)
 Initial guess from the checkpoint file:  "imidazole.chk"
 B after Tr=    -0.000000   -0.000000   -0.000000
         Rot=    1.000000   -0.000007   -0.000001    0.000905 Ang=  -0.10 deg.
 Guess basis will be translated and rotated to current coordinates.
 JPrj=2 DoOrth=T DoCkMO=T.
 Generating alternative initial guess.
 ExpMin= 1.22D-01 ExpMax= 9.05D+03 ExpMxC= 3.09D+02 IAcc=3 IRadAn=         5 AccDes= 0.00D+00
 Harris functional with IExCor=  402 and IRadAn=       5 diagonalized for initial guess.
 HarFok:  IExCor=  402 AccDes= 0.00D+00 IRadAn=         5 IDoV= 1 UseB2=F ITyADJ=14
 ICtDFT=  3500011 ScaDFX=  1.000000  1.000000  1.000000  1.000000
 FoFCou: FMM=F IPFlag=           0 FMFlag=      100000 FMFlg1=           0
         NFxFlg=           0 DoJE=T BraDBF=F KetDBF=T FulRan=T
         wScrn=  0.000000 ICntrl=       500 IOpCl=  0 I1Cent=   200000004 NGrid=           0
         NMat0=    1 NMatS0=      1 NMatT0=    0 NMatD0=    1 NMtDS0=    0 NMtDT0=    0
 Petite list used in FoFCou.
 Harris En= -226.203342830785    
 Leave Link  401 at Sat Jul 24 12:35:08 2021, MaxMem=   134217728 cpu:               3.9 elap:               0.3
 (Enter /APL/ISV/x86_64/gaussian/16/C.01/g16/l502.exe)
 Keep R1 ints in memory in canonical form, NReq=23083712.
 FoFCou: FMM=F IPFlag=           0 FMFlag=           0 FMFlg1=           0
         NFxFlg=           0 DoJE=F BraDBF=F KetDBF=F FulRan=T
         wScrn=  0.000000 ICntrl=       600 IOpCl=  0 I1Cent=           0 NGrid=           0
         NMat0=    1 NMatS0=   4095 NMatT0=    0 NMatD0=    1 NMtDS0=    0 NMtDT0=    0
 Symmetry not used in FoFCou.
 Two-electron integral symmetry not used.
 Closed shell SCF:
 Using DIIS extrapolation, IDIIS=  1040.
 NGot=   134217728 LenX=   125810262 LenY=   125800796
 Requested convergence on RMS density matrix=1.00D-08 within 128 cycles.
 Requested convergence on MAX density matrix=1.00D-06.
 Requested convergence on             energy=1.00D-06.
 No special actions if energy rises.
 Integral accuracy reduced to 1.0D-05 until final iterations.

 Cycle   1  Pass 0  IDiag  1:
 E= -226.226349871834    
 DIIS: error= 4.06D-03 at cycle   1 NSaved=   1.
 NSaved= 1 IEnMin= 1 EnMin= -226.226349871834     IErMin= 1 ErrMin= 4.06D-03
 ErrMax= 4.06D-03  0.00D+00 EMaxC= 1.00D-01 BMatC= 3.76D-03 BMatP= 3.76D-03
 IDIUse=3 WtCom= 9.59D-01 WtEn= 4.06D-02
 Coeff-Com:  0.100D+01
 Coeff-En:   0.100D+01
 Coeff:      0.100D+01
 Gap=     0.888 Goal=   None    Shift=    0.000
 GapD=    0.888 DampG=2.000 DampE=1.000 DampFc=2.0000 IDamp=-1.
 RMSDP=1.21D-03 MaxDP=2.52D-02              OVMax= 2.58D-02

 Cycle   2  Pass 0  IDiag  1:
 E= -226.230488887504     Delta-E=       -0.004139015671 Rises=F Damp=F
 DIIS: error= 3.00D-03 at cycle   2 NSaved=   2.
 NSaved= 2 IEnMin= 2 EnMin= -226.230488887504     IErMin= 2 ErrMin= 3.00D-03
 ErrMax= 3.00D-03  0.00D+00 EMaxC= 1.00D-01 BMatC= 8.66D-04 BMatP= 3.76D-03
 IDIUse=3 WtCom= 9.70D-01 WtEn= 3.00D-02
 Coeff-Com:  0.254D+00 0.746D+00
 Coeff-En:   0.000D+00 0.100D+01
 Coeff:      0.246D+00 0.754D+00
 Gap=     0.255 Goal=   None    Shift=    0.000
 RMSDP=5.19D-04 MaxDP=1.25D-02 DE=-4.14D-03 OVMax= 2.01D-02

 Cycle   3  Pass 0  IDiag  1:
 E= -226.230494335850     Delta-E=       -0.000005448346 Rises=F Damp=F
 DIIS: error= 3.69D-03 at cycle   3 NSaved=   3.
 NSaved= 3 IEnMin= 3 EnMin= -226.230494335850     IErMin= 2 ErrMin= 3.00D-03
 ErrMax= 3.69D-03  0.00D+00 EMaxC= 1.00D-01 BMatC= 8.27D-04 BMatP= 8.66D-04
 IDIUse=3 WtCom= 9.63D-01 WtEn= 3.69D-02
 Coeff-Com:  0.208D-01 0.491D+00 0.488D+00
 Coeff-En:   0.000D+00 0.499D+00 0.501D+00
 Coeff:      0.200D-01 0.492D+00 0.488D+00
 Gap=     0.256 Goal=   None    Shift=    0.000
 RMSDP=3.27D-04 MaxDP=7.81D-03 DE=-5.45D-06 OVMax= 1.42D-02

 Cycle   4  Pass 0  IDiag  1:
 E= -226.231204701104     Delta-E=       -0.000710365254 Rises=F Damp=F
 DIIS: error= 1.06D-03 at cycle   4 NSaved=   4.
 NSaved= 4 IEnMin= 4 EnMin= -226.231204701104     IErMin= 4 ErrMin= 1.06D-03
 ErrMax= 1.06D-03  0.00D+00 EMaxC= 1.00D-01 BMatC= 7.91D-05 BMatP= 8.27D-04
 IDIUse=3 WtCom= 9.89D-01 WtEn= 1.06D-02
 Coeff-Com: -0.909D-02 0.238D+00 0.314D+00 0.457D+00
 Coeff-En:   0.000D+00 0.000D+00 0.406D-01 0.959D+00
 Coeff:     -0.900D-02 0.236D+00 0.311D+00 0.462D+00
 Gap=     0.256 Goal=   None    Shift=    0.000
 RMSDP=8.26D-05 MaxDP=1.56D-03 DE=-7.10D-04 OVMax= 2.98D-03

 Cycle   5  Pass 0  IDiag  1:
 E= -226.231279218020     Delta-E=       -0.000074516916 Rises=F Damp=F
 DIIS: error= 7.84D-05 at cycle   5 NSaved=   5.
 NSaved= 5 IEnMin= 5 EnMin= -226.231279218020     IErMin= 5 ErrMin= 7.84D-05
 ErrMax= 7.84D-05  0.00D+00 EMaxC= 1.00D-01 BMatC= 1.13D-06 BMatP= 7.91D-05
 IDIUse=1 WtCom= 1.00D+00 WtEn= 0.00D+00
 Coeff-Com: -0.403D-02 0.457D-01 0.812D-01 0.163D+00 0.714D+00
 Coeff:     -0.403D-02 0.457D-01 0.812D-01 0.163D+00 0.714D+00
 Gap=     0.256 Goal=   None    Shift=    0.000
 RMSDP=1.47D-05 MaxDP=3.48D-04 DE=-7.45D-05 OVMax= 5.11D-04

 Cycle   6  Pass 0  IDiag  1:
 E= -226.231280042268     Delta-E=       -0.000000824248 Rises=F Damp=F
 DIIS: error= 4.67D-05 at cycle   6 NSaved=   6.
 NSaved= 6 IEnMin= 6 EnMin= -226.231280042268     IErMin= 6 ErrMin= 4.67D-05
 ErrMax= 4.67D-05  0.00D+00 EMaxC= 1.00D-01 BMatC= 3.29D-07 BMatP= 1.13D-06
 IDIUse=1 WtCom= 1.00D+00 WtEn= 0.00D+00
 Coeff-Com: -0.162D-02 0.110D-01 0.278D-01 0.654D-01 0.424D+00 0.473D+00
 Coeff:     -0.162D-02 0.110D-01 0.278D-01 0.654D-01 0.424D+00 0.473D+00
 Gap=     0.256 Goal=   None    Shift=    0.000
 RMSDP=5.64D-06 MaxDP=1.74D-04 DE=-8.24D-07 OVMax= 2.16D-04

 Initial convergence to 1.0D-05 achieved.  Increase integral accuracy.
 Cycle   7  Pass 1  IDiag  1:
 E= -226.231279269579     Delta-E=        0.000000772689 Rises=F Damp=F
 DIIS: error= 5.12D-06 at cycle   1 NSaved=   1.
 NSaved= 1 IEnMin= 1 EnMin= -226.231279269579     IErMin= 1 ErrMin= 5.12D-06
 ErrMax= 5.12D-06  0.00D+00 EMaxC= 1.00D-01 BMatC= 5.30D-09 BMatP= 5.30D-09
 IDIUse=1 WtCom= 1.00D+00 WtEn= 0.00D+00
 Coeff-Com:  0.100D+01
 Coeff:      0.100D+01
 Gap=     0.256 Goal=   None    Shift=    0.000
 RMSDP=5.64D-06 MaxDP=1.74D-04 DE= 7.73D-07 OVMax= 4.75D-05

 Cycle   8  Pass 1  IDiag  1:
 E= -226.231279266975     Delta-E=        0.000000002604 Rises=F Damp=F
 DIIS: error= 8.24D-06 at cycle   2 NSaved=   2.
 NSaved= 2 IEnMin= 1 EnMin= -226.231279269579     IErMin= 1 ErrMin= 5.12D-06
 ErrMax= 8.24D-06  0.00D+00 EMaxC= 1.00D-01 BMatC= 8.34D-09 BMatP= 5.30D-09
 IDIUse=1 WtCom= 1.00D+00 WtEn= 0.00D+00
 Coeff-Com:  0.564D+00 0.436D+00
 Coeff:      0.564D+00 0.436D+00
 Gap=     0.256 Goal=   None    Shift=    0.000
 RMSDP=9.64D-07 MaxDP=2.51D-05 DE= 2.60D-09 OVMax= 3.71D-05

 Cycle   9  Pass 1  IDiag  1:
 E= -226.231279274562     Delta-E=       -0.000000007587 Rises=F Damp=F
 DIIS: error= 2.80D-06 at cycle   3 NSaved=   3.
 NSaved= 3 IEnMin= 3 EnMin= -226.231279274562     IErMin= 3 ErrMin= 2.80D-06
 ErrMax= 2.80D-06  0.00D+00 EMaxC= 1.00D-01 BMatC= 4.36D-10 BMatP= 5.30D-09
 IDIUse=1 WtCom= 1.00D+00 WtEn= 0.00D+00
 Coeff-Com:  0.101D+00 0.200D+00 0.699D+00
 Coeff:      0.101D+00 0.200D+00 0.699D+00
 Gap=     0.256 Goal=   None    Shift=    0.000
 RMSDP=2.65D-07 MaxDP=5.40D-06 DE=-7.59D-09 OVMax= 1.08D-05

 Cycle  10  Pass 1  IDiag  1:
 E= -226.231279274839     Delta-E=       -0.000000000277 Rises=F Damp=F
 DIIS: error= 1.56D-06 at cycle   4 NSaved=   4.
 NSaved= 4 IEnMin= 4 EnMin= -226.231279274839     IErMin= 4 ErrMin= 1.56D-06
 ErrMax= 1.56D-06  0.00D+00 EMaxC= 1.00D-01 BMatC= 1.67D-10 BMatP= 4.36D-10
 IDIUse=1 WtCom= 1.00D+00 WtEn= 0.00D+00
 Coeff-Com:  0.449D-02 0.888D-01 0.472D+00 0.434D+00
 Coeff:      0.449D-02 0.888D-01 0.472D+00 0.434D+00
 Gap=     0.256 Goal=   None    Shift=    0.000
 RMSDP=1.23D-07 MaxDP=3.13D-06 DE=-2.77D-10 OVMax= 5.36D-06

 Cycle  11  Pass 1  IDiag  1:
 E= -226.231279274986     Delta-E=       -0.000000000147 Rises=F Damp=F
 DIIS: error= 2.15D-07 at cycle   5 NSaved=   5.
 NSaved= 5 IEnMin= 5 EnMin= -226.231279274986     IErMin= 5 ErrMin= 2.15D-07
 ErrMax= 2.15D-07  0.00D+00 EMaxC= 1.00D-01 BMatC= 4.03D-12 BMatP= 1.67D-10
 IDIUse=1 WtCom= 1.00D+00 WtEn= 0.00D+00
 Coeff-Com: -0.611D-02 0.225D-01 0.148D+00 0.198D+00 0.637D+00
 Coeff:     -0.611D-02 0.225D-01 0.148D+00 0.198D+00 0.637D+00
 Gap=     0.256 Goal=   None    Shift=    0.000
 RMSDP=2.63D-08 MaxDP=5.48D-07 DE=-1.47D-10 OVMax= 9.69D-07

 Cycle  12  Pass 1  IDiag  1:
 E= -226.231279274988     Delta-E=       -0.000000000003 Rises=F Damp=F
 DIIS: error= 4.45D-08 at cycle   6 NSaved=   6.
 NSaved= 6 IEnMin= 6 EnMin= -226.231279274988     IErMin= 6 ErrMin= 4.45D-08
 ErrMax= 4.45D-08  0.00D+00 EMaxC= 1.00D-01 BMatC= 3.50D-13 BMatP= 4.03D-12
 IDIUse=1 WtCom= 1.00D+00 WtEn= 0.00D+00
 Coeff-Com: -0.357D-02 0.546D-02 0.420D-01 0.672D-01 0.309D+00 0.580D+00
 Coeff:     -0.357D-02 0.546D-02 0.420D-01 0.672D-01 0.309D+00 0.580D+00
 Gap=     0.256 Goal=   None    Shift=    0.000
 RMSDP=6.41D-09 MaxDP=1.48D-07 DE=-2.84D-12 OVMax= 2.27D-07

 SCF Done:  E(RB3LYP) =  -226.231279275     A.U. after   12 cycles
            NFock= 12  Conv=0.64D-08     -V/T= 2.0067
 KE= 2.247298541693D+02 PE=-8.523458193950D+02 EE= 2.384141475940D+02
 Leave Link  502 at Sat Jul 24 12:35:09 2021, MaxMem=   134217728 cpu:              13.5 elap:               1.0
 (Enter /APL/ISV/x86_64/gaussian/16/C.01/g16/l701.exe)
 ... and contract with generalized density number  0.
 Compute integral first derivatives.
 Leave Link  701 at Sat Jul 24 12:35:10 2021, MaxMem=   134217728 cpu:               1.3 elap:               0.1
 (Enter /APL/ISV/x86_64/gaussian/16/C.01/g16/l702.exe)
 L702 exits ... SP integral derivatives will be done elsewhere.
 Leave Link  702 at Sat Jul 24 12:35:10 2021, MaxMem=   134217728 cpu:               0.2 elap:               0.0
 (Enter /APL/ISV/x86_64/gaussian/16/C.01/g16/l703.exe)
 Integral derivatives from FoFJK, PRISM(SPDF).
 Compute integral first derivatives, UseDBF=F ICtDFT=           0.
 Calling FoFJK, ICntrl=      2127 FMM=F ISym2X=0 I1Cent= 0 IOpClX= 0 NMat=1 NMatS=1 NMatT=0.
 FoFJK:  IHMeth= 1 ICntrl=    2127 DoSepK=F KAlg= 0 I1Cent=           0 FoldK=F
 IRaf=         0 NMat=       1 IRICut=       1 DoRegI=T DoRafI=F ISym2E= 0 IDoP0=0 IntGTp=1.
 FoFCou: FMM=F IPFlag=           0 FMFlag=      100000 FMFlg1=         800
         NFxFlg=           0 DoJE=F BraDBF=F KetDBF=F FulRan=T
         wScrn=  0.000000 ICntrl=      2127 IOpCl=  0 I1Cent=           0 NGrid=           0
         NMat0=    1 NMatS0=      1 NMatT0=    0 NMatD0=    1 NMtDS0=    0 NMtDT0=    0
 Symmetry not used in FoFCou.
 Leave Link  703 at Sat Jul 24 12:35:10 2021, MaxMem=   134217728 cpu:               6.0 elap:               0.4
 (Enter /APL/ISV/x86_64/gaussian/16/C.01/g16/l716.exe)
 Dipole        = 6.89647576D-01 1.29226547D+00 1.76966840D-04
 ***** Axes restored to original set *****
 -------------------------------------------------------------------
 Center     Atomic                   Forces (Hartrees/Bohr)
 Number     Number              X              Y              Z
 -------------------------------------------------------------------
      1        6          -0.002788053   -0.003588626    0.000006286
      2        6           0.010617776    0.001201370    0.000002247
      3        6           0.008283018    0.006530062   -0.000003895
      4        7          -0.008799330   -0.009498002   -0.000005101
      5        1          -0.000550873   -0.001423539    0.000003615
      6        1          -0.000900199   -0.002237431   -0.000001899
      7        1           0.002576453   -0.000733575    0.000000871
      8        1           0.000579217   -0.001571833    0.000001209
      9        7          -0.009018008    0.011321575   -0.000003333
 -------------------------------------------------------------------
 Cartesian Forces:  Max     0.011321575 RMS     0.004873791
 Leave Link  716 at Sat Jul 24 12:35:10 2021, MaxMem=   134217728 cpu:               0.3 elap:               0.0
 (Enter /APL/ISV/x86_64/gaussian/16/C.01/g16/l103.exe)

 GradGradGradGradGradGradGradGradGradGradGradGradGradGradGradGradGradGrad
 Berny optimization.
 Using GEDIIS/GDIIS optimizer.
 FormGI is forming the generalized inverse of G from B-inverse, IUseBI=4.
 Internal  Forces:  Max     0.016408141 RMS     0.003988243
 Search for a local minimum.
 Step number   2 out of a maximum of   48
 All quantities printed in internal units (Hartrees-Bohrs-Radians)
 RMS Force = .39882D-02 SwitMx=.10000D-02 MixMth= 1
 Mixed Optimization -- RFO/linear search
 Update second derivatives using D2CorX and points    1    2
 DE= -1.41D-02 DEPred=-1.59D-02 R= 8.87D-01
 TightC=F SS=  1.41D+00  RLast= 2.83D-01 DXNew= 5.0454D-01 8.4788D-01
 Trust test= 8.87D-01 RLast= 2.83D-01 DXMaxT set to 5.05D-01
 ITU=  1  0
 Use linear search instead of GDIIS.
     Eigenvalues ---    0.01579   0.01749   0.01800   0.01801   0.01859
     Eigenvalues ---    0.01966   0.15834   0.16000   0.16000   0.16047
     Eigenvalues ---    0.22023   0.26742   0.34709   0.34909   0.35272
     Eigenvalues ---    0.36248   0.38748   0.43797   0.45789   0.50143
     Eigenvalues ---    0.53748
 RFO step:  Lambda=-1.32887633D-03 EMin= 1.57854921D-02
 Quartic linear search produced a step of -0.07984.
 Iteration  1 RMS(Cart)=  0.01386389 RMS(Int)=  0.00013766
 Iteration  2 RMS(Cart)=  0.00018582 RMS(Int)=  0.00004699
 Iteration  3 RMS(Cart)=  0.00000001 RMS(Int)=  0.00004699
 ITry= 1 IFail=0 DXMaxC= 4.19D-02 DCOld= 1.00D+10 DXMaxT= 5.05D-01 DXLimC= 3.00D+00 Rises=F
 Variable       Old X    -DE/DX   Delta X   Delta X   Delta X     New X
                                 (Linear)    (Quad)   (Total)
    R1        2.59041  -0.00343   0.00317  -0.01250  -0.00937   2.58104
    R2        2.05108   0.00232   0.00059   0.00501   0.00559   2.05667
    R3        2.49767  -0.00107   0.01208  -0.02506  -0.01293   2.48474
    R4        2.59724   0.00153   0.00414  -0.00347   0.00066   2.59790
    R5        2.05145   0.00227  -0.00012   0.00608   0.00596   2.05741
    R6        2.61183  -0.00122   0.00796  -0.01795  -0.00992   2.60191
    R7        2.57638   0.01641   0.00429   0.02559   0.02980   2.60618
    R8        2.05567  -0.00162   0.00021  -0.00465  -0.00443   2.05124
    R9        1.91168   0.00013  -0.00413   0.00754   0.00341   1.91509
    A1        2.11895   0.00325   0.00011   0.01539   0.01550   2.13445
    A2        1.96520  -0.00512  -0.00582  -0.01095  -0.01677   1.94843
    A3        2.19903   0.00187   0.00572  -0.00444   0.00128   2.20031
    A4        2.20466   0.00552   0.00017   0.02455   0.02469   2.22935
    A5        1.95645  -0.00812  -0.00684  -0.01849  -0.02529   1.93116
    A6        2.12208   0.00260   0.00667  -0.00605   0.00059   2.12267
    A7        1.82704   0.00132   0.00520   0.00059   0.00570   1.83273
    A8        2.31585  -0.00110  -0.00359  -0.00070  -0.00425   2.31161
    A9        2.14030  -0.00022  -0.00161   0.00011  -0.00145   2.13885
   A10        1.87353  -0.00050   0.00202  -0.00258  -0.00068   1.87285
   A11        2.21194  -0.00120  -0.00159  -0.00577  -0.00730   2.20465
   A12        2.19772   0.00170  -0.00043   0.00835   0.00797   2.20569
   A13        1.80257   0.01242   0.00545   0.03143   0.03704   1.83961
    D1        3.14154   0.00000   0.00000   0.00003   0.00003   3.14158
    D2       -0.00032   0.00000  -0.00000   0.00014   0.00014  -0.00018
    D3        0.00005  -0.00000   0.00000  -0.00005  -0.00005  -0.00000
    D4        3.14137   0.00000  -0.00000   0.00006   0.00006   3.14143
    D5       -0.00005   0.00000   0.00000   0.00005   0.00005   0.00000
    D6       -3.14154  -0.00000   0.00000  -0.00004  -0.00004  -3.14157
    D7       -3.14159   0.00000   0.00000   0.00004   0.00004  -3.14155
    D8        0.00006  -0.00000  -0.00000  -0.00001  -0.00002   0.00004
    D9       -0.00000   0.00000   0.00001  -0.00000   0.00001   0.00000
   D10       -3.14154  -0.00000   0.00001  -0.00006  -0.00005   3.14159
   D11        0.00003  -0.00000  -0.00001  -0.00002  -0.00003  -0.00000
   D12       -3.14157  -0.00000   0.00000  -0.00007  -0.00007   3.14155
   D13       -0.00002  -0.00000  -0.00001   0.00003   0.00002  -0.00000
   D14       -3.14135  -0.00000  -0.00000  -0.00008  -0.00008  -3.14143
   D15        3.14152   0.00000  -0.00000   0.00008   0.00008  -3.14159
   D16        0.00019  -0.00000   0.00000  -0.00003  -0.00003   0.00017
         Item               Value     Threshold  Converged?
 Maximum Force            0.016408     0.000450     NO 
 RMS     Force            0.003988     0.000300     NO 
 Maximum Displacement     0.041936     0.001800     NO 
 RMS     Displacement     0.013849     0.001200     NO 
 Predicted change in Energy=-7.952486D-04
 Lowest energy point so far.  Saving SCF results.
 GradGradGradGradGradGradGradGradGradGradGradGradGradGradGradGradGradGrad

 Leave Link  103 at Sat Jul 24 12:35:10 2021, MaxMem=   134217728 cpu:               0.3 elap:               0.1
 (Enter /APL/ISV/x86_64/gaussian/16/C.01/g16/l202.exe)
                          Input orientation:                          
 ---------------------------------------------------------------------
 Center     Atomic      Atomic             Coordinates (Angstroms)
 Number     Number       Type             X           Y           Z
 ---------------------------------------------------------------------
      1          6           0       -1.491611   -1.332592   -0.148404
      2          6           0        0.213120   -0.036375   -0.148483
      3          6           0       -0.883277    0.792992   -0.148551
      4          7           0       -1.971726   -0.053933   -0.148500
      5          1           0       -2.947165    0.220923   -0.148659
      6          1           0       -2.148485   -2.200354   -0.148332
      7          1           0        1.263958    0.248379   -0.148455
      8          1           0       -0.984291    1.873752   -0.148626
      9          7           0       -0.176968   -1.356830   -0.148393
 ---------------------------------------------------------------------
                    Distance matrix (angstroms):
                    1          2          3          4          5
     1  C    0.000000
     2  C    2.141562   0.000000
     3  C    2.210923   1.374749   0.000000
     4  N    1.365826   2.184917   1.379132   0.000000
     5  H    2.128860   3.170742   2.141705   1.013423   0.000000
     6  H    1.088345   3.203121   3.249750   2.153687   2.549603
     7  H    3.176890   1.088736   2.215225   3.249776   4.211213
     8  H    3.246231   2.254413   1.085470   2.165871   2.566071
     9  N    1.314866   1.376870   2.262876   2.217814   3.187992
                    6          7          8          9
     6  H    0.000000
     7  H    4.200127   0.000000
     8  H    4.237180   2.774250   0.000000
     9  N    2.144391   2.157073   3.329930   0.000000
 Stoichiometry    C3H4N2
 Framework group  C1[X(C3H4N2)]
 Deg. of freedom    21
 Full point group                 C1      NOp   1
 RotChk:  IX=0 Diff= 3.29D-02
 Largest Abelian subgroup         C1      NOp   1
 Largest concise Abelian subgroup C1      NOp   1
                         Standard orientation:                         
 ---------------------------------------------------------------------
 Center     Atomic      Atomic             Coordinates (Angstroms)
 Number     Number       Type             X           Y           Z
 ---------------------------------------------------------------------
      1          6           0        0.988975   -0.540050   -0.000067
      2          6           0       -1.137304   -0.284660    0.000012
      3          6           0       -0.611313    0.985485    0.000080
      4          7           0        0.756059    0.805770    0.000029
      5          1           0        1.458315    1.536429    0.000188
      6          1           0        1.994648   -0.956124   -0.000138
      7          1           0       -2.187766   -0.570797   -0.000016
      8          1           0       -1.071071    1.968780    0.000155
      9          7           0       -0.132669   -1.226190   -0.000078
 ---------------------------------------------------------------------
 Rotational constants (GHZ):           9.7235892           9.3757868           4.7732606
 Leave Link  202 at Sat Jul 24 12:35:10 2021, MaxMem=   134217728 cpu:               0.1 elap:               0.0
 (Enter /APL/ISV/x86_64/gaussian/16/C.01/g16/l301.exe)
 Standard basis: CC-pVDZ (5D, 7F)
 Ernie: Thresh=  0.10000D-02 Tol=  0.10000D-05 Strict=F.
 Ernie:  10 primitive shells out of 130 were deleted.
 There are    95 symmetry adapted cartesian basis functions of A   symmetry.
 There are    90 symmetry adapted basis functions of A   symmetry.
    90 basis functions,   193 primitive gaussians,    95 cartesian basis functions
    18 alpha electrons       18 beta electrons
       nuclear repulsion energy       162.9348989014 Hartrees.
 IExCor=  402 DFT=T Ex+Corr=B3LYP ExCW=0 ScaHFX=  0.200000
 ScaDFX=  0.800000  0.720000  1.000000  0.810000 ScalE2=  1.000000  1.000000
 IRadAn=      5 IRanWt=     -1 IRanGd=            0 ICorTp=0 IEmpDi=  4
 NAtoms=    9 NActive=    9 NUniq=    9 SFac= 1.00D+00 NAtFMM=   60 NAOKFM=F Big=F
 Integral buffers will be    131072 words long.
 Raffenetti 2 integral format.
 Two-electron integral symmetry is turned on.
 Leave Link  301 at Sat Jul 24 12:35:10 2021, MaxMem=   134217728 cpu:               0.8 elap:               0.1
 (Enter /APL/ISV/x86_64/gaussian/16/C.01/g16/l302.exe)
 NPDir=0 NMtPBC=     1 NCelOv=     1 NCel=       1 NClECP=     1 NCelD=      1
         NCelK=      1 NCelE2=     1 NClLst=     1 CellRange=     0.0.
 One-electron integrals computed using PRISM.
 One-electron integral symmetry used in STVInt
 NBasis=    90 RedAO= T EigKep=  1.73D-03  NBF=    90
 NBsUse=    90 1.00D-06 EigRej= -1.00D+00 NBFU=    90
 Precomputing XC quadrature grid using
 IXCGrd= 4 IRadAn=           5 IRanWt=          -1 IRanGd=           0 AccXCQ= 0.00D+00.
 Generated NRdTot=       0 NPtTot=           0 NUsed=           0 NTot=          32
 NSgBfM=    95    95    95    95    95 MxSgAt=     9 MxSgA2=     9.
 Leave Link  302 at Sat Jul 24 12:35:10 2021, MaxMem=   134217728 cpu:               1.6 elap:               0.1
 (Enter /APL/ISV/x86_64/gaussian/16/C.01/g16/l303.exe)
 DipDrv:  MaxL=1.
 Leave Link  303 at Sat Jul 24 12:35:10 2021, MaxMem=   134217728 cpu:               0.3 elap:               0.0
 (Enter /APL/ISV/x86_64/gaussian/16/C.01/g16/l401.exe)
 Initial guess from the checkpoint file:  "imidazole.chk"
 B after Tr=     0.000000    0.000000    0.000000
         Rot=    0.999933   -0.000004   -0.000002   -0.011583 Ang=  -1.33 deg.
 Guess basis will be translated and rotated to current coordinates.
 JPrj=2 DoOrth=T DoCkMO=T.
 Generating alternative initial guess.
 ExpMin= 1.22D-01 ExpMax= 9.05D+03 ExpMxC= 3.09D+02 IAcc=3 IRadAn=         5 AccDes= 0.00D+00
 Harris functional with IExCor=  402 and IRadAn=       5 diagonalized for initial guess.
 HarFok:  IExCor=  402 AccDes= 0.00D+00 IRadAn=         5 IDoV= 1 UseB2=F ITyADJ=14
 ICtDFT=  3500011 ScaDFX=  1.000000  1.000000  1.000000  1.000000
 FoFCou: FMM=F IPFlag=           0 FMFlag=      100000 FMFlg1=           0
         NFxFlg=           0 DoJE=T BraDBF=F KetDBF=T FulRan=T
         wScrn=  0.000000 ICntrl=       500 IOpCl=  0 I1Cent=   200000004 NGrid=           0
         NMat0=    1 NMatS0=      1 NMatT0=    0 NMatD0=    1 NMtDS0=    0 NMtDT0=    0
 Petite list used in FoFCou.
 Harris En= -226.204314199276    
 Leave Link  401 at Sat Jul 24 12:35:11 2021, MaxMem=   134217728 cpu:               3.7 elap:               0.3
 (Enter /APL/ISV/x86_64/gaussian/16/C.01/g16/l502.exe)
 Keep R1 ints in memory in canonical form, NReq=23083712.
 FoFCou: FMM=F IPFlag=           0 FMFlag=           0 FMFlg1=           0
         NFxFlg=           0 DoJE=F BraDBF=F KetDBF=F FulRan=T
         wScrn=  0.000000 ICntrl=       600 IOpCl=  0 I1Cent=           0 NGrid=           0
         NMat0=    1 NMatS0=   4095 NMatT0=    0 NMatD0=    1 NMtDS0=    0 NMtDT0=    0
 Symmetry not used in FoFCou.
 Two-electron integral symmetry not used.
 Closed shell SCF:
 Using DIIS extrapolation, IDIIS=  1040.
 NGot=   134217728 LenX=   125810262 LenY=   125800796
 Requested convergence on RMS density matrix=1.00D-08 within 128 cycles.
 Requested convergence on MAX density matrix=1.00D-06.
 Requested convergence on             energy=1.00D-06.
 No special actions if energy rises.
 Integral accuracy reduced to 1.0D-05 until final iterations.

 Cycle   1  Pass 0  IDiag  1:
 E= -226.231571451203    
 DIIS: error= 1.28D-03 at cycle   1 NSaved=   1.
 NSaved= 1 IEnMin= 1 EnMin= -226.231571451203     IErMin= 1 ErrMin= 1.28D-03
 ErrMax= 1.28D-03  0.00D+00 EMaxC= 1.00D-01 BMatC= 2.51D-04 BMatP= 2.51D-04
 IDIUse=3 WtCom= 9.87D-01 WtEn= 1.28D-02
 Coeff-Com:  0.100D+01
 Coeff-En:   0.100D+01
 Coeff:      0.100D+01
 Gap=     0.898 Goal=   None    Shift=    0.000
 GapD=    0.898 DampG=2.000 DampE=1.000 DampFc=2.0000 IDamp=-1.
 RMSDP=3.57D-04 MaxDP=6.02D-03              OVMax= 7.55D-03

 Cycle   2  Pass 0  IDiag  1:
 E= -226.231943331031     Delta-E=       -0.000371879828 Rises=F Damp=F
 DIIS: error= 4.63D-04 at cycle   2 NSaved=   2.
 NSaved= 2 IEnMin= 2 EnMin= -226.231943331031     IErMin= 2 ErrMin= 4.63D-04
 ErrMax= 4.63D-04  0.00D+00 EMaxC= 1.00D-01 BMatC= 2.35D-05 BMatP= 2.51D-04
 IDIUse=3 WtCom= 9.95D-01 WtEn= 4.63D-03
 Coeff-Com:  0.112D+00 0.888D+00
 Coeff-En:   0.000D+00 0.100D+01
 Coeff:      0.112D+00 0.888D+00
 Gap=     0.257 Goal=   None    Shift=    0.000
 RMSDP=9.52D-05 MaxDP=1.82D-03 DE=-3.72D-04 OVMax= 3.52D-03

 Cycle   3  Pass 0  IDiag  1:
 E= -226.231924874588     Delta-E=        0.000018456443 Rises=F Damp=F
 DIIS: error= 7.27D-04 at cycle   3 NSaved=   3.
 NSaved= 3 IEnMin= 2 EnMin= -226.231943331031     IErMin= 2 ErrMin= 4.63D-04
 ErrMax= 7.27D-04  0.00D+00 EMaxC= 1.00D-01 BMatC= 4.11D-05 BMatP= 2.35D-05
 IDIUse=3 WtCom= 2.71D-01 WtEn= 7.29D-01
 Coeff-Com: -0.111D-01 0.577D+00 0.434D+00
 Coeff-En:   0.000D+00 0.634D+00 0.366D+00
 Coeff:     -0.301D-02 0.618D+00 0.385D+00
 Gap=     0.257 Goal=   None    Shift=    0.000
 RMSDP=6.37D-05 MaxDP=1.13D-03 DE= 1.85D-05 OVMax= 2.52D-03

 Cycle   4  Pass 0  IDiag  1:
 E= -226.231964111613     Delta-E=       -0.000039237025 Rises=F Damp=F
 DIIS: error= 7.28D-05 at cycle   4 NSaved=   4.
 NSaved= 4 IEnMin= 4 EnMin= -226.231964111613     IErMin= 4 ErrMin= 7.28D-05
 ErrMax= 7.28D-05  0.00D+00 EMaxC= 1.00D-01 BMatC= 5.21D-07 BMatP= 2.35D-05
 IDIUse=1 WtCom= 1.00D+00 WtEn= 0.00D+00
 Coeff-Com: -0.119D-01 0.181D+00 0.148D+00 0.682D+00
 Coeff:     -0.119D-01 0.181D+00 0.148D+00 0.682D+00
 Gap=     0.257 Goal=   None    Shift=    0.000
 RMSDP=1.12D-05 MaxDP=2.26D-04 DE=-3.92D-05 OVMax= 3.69D-04

 Cycle   5  Pass 0  IDiag  1:
 E= -226.231964481476     Delta-E=       -0.000000369863 Rises=F Damp=F
 DIIS: error= 4.87D-05 at cycle   5 NSaved=   5.
 NSaved= 5 IEnMin= 5 EnMin= -226.231964481476     IErMin= 5 ErrMin= 4.87D-05
 ErrMax= 4.87D-05  0.00D+00 EMaxC= 1.00D-01 BMatC= 2.06D-07 BMatP= 5.21D-07
 IDIUse=1 WtCom= 1.00D+00 WtEn= 0.00D+00
 Coeff-Com: -0.663D-02 0.795D-01 0.690D-01 0.425D+00 0.433D+00
 Coeff:     -0.663D-02 0.795D-01 0.690D-01 0.425D+00 0.433D+00
 Gap=     0.257 Goal=   None    Shift=    0.000
 RMSDP=4.77D-06 MaxDP=1.32D-04 DE=-3.70D-07 OVMax= 2.16D-04

 Initial convergence to 1.0D-05 achieved.  Increase integral accuracy.
 Cycle   6  Pass 1  IDiag  1:
 E= -226.231965474610     Delta-E=       -0.000000993133 Rises=F Damp=F
 DIIS: error= 6.00D-06 at cycle   1 NSaved=   1.
 NSaved= 1 IEnMin= 1 EnMin= -226.231965474610     IErMin= 1 ErrMin= 6.00D-06
 ErrMax= 6.00D-06  0.00D+00 EMaxC= 1.00D-01 BMatC= 5.29D-09 BMatP= 5.29D-09
 IDIUse=1 WtCom= 1.00D+00 WtEn= 0.00D+00
 Coeff-Com:  0.100D+01
 Coeff:      0.100D+01
 Gap=     0.257 Goal=   None    Shift=    0.000
 RMSDP=4.77D-06 MaxDP=1.32D-04 DE=-9.93D-07 OVMax= 6.79D-05

 Cycle   7  Pass 1  IDiag  1:
 E= -226.231965469495     Delta-E=        0.000000005114 Rises=F Damp=F
 DIIS: error= 1.05D-05 at cycle   2 NSaved=   2.
 NSaved= 2 IEnMin= 1 EnMin= -226.231965474610     IErMin= 1 ErrMin= 6.00D-06
 ErrMax= 1.05D-05  0.00D+00 EMaxC= 1.00D-01 BMatC= 1.03D-08 BMatP= 5.29D-09
 IDIUse=1 WtCom= 1.00D+00 WtEn= 0.00D+00
 Coeff-Com:  0.589D+00 0.411D+00
 Coeff:      0.589D+00 0.411D+00
 Gap=     0.257 Goal=   None    Shift=    0.000
 RMSDP=1.10D-06 MaxDP=2.62D-05 DE= 5.11D-09 OVMax= 5.24D-05

 Cycle   8  Pass 1  IDiag  1:
 E= -226.231965480068     Delta-E=       -0.000000010573 Rises=F Damp=F
 DIIS: error= 1.61D-06 at cycle   3 NSaved=   3.
 NSaved= 3 IEnMin= 3 EnMin= -226.231965480068     IErMin= 3 ErrMin= 1.61D-06
 ErrMax= 1.61D-06  0.00D+00 EMaxC= 1.00D-01 BMatC= 2.57D-10 BMatP= 5.29D-09
 IDIUse=1 WtCom= 1.00D+00 WtEn= 0.00D+00
 Coeff-Com:  0.104D+00 0.159D+00 0.738D+00
 Coeff:      0.104D+00 0.159D+00 0.738D+00
 Gap=     0.257 Goal=   None    Shift=    0.000
 RMSDP=1.88D-07 MaxDP=5.28D-06 DE=-1.06D-08 OVMax= 6.68D-06

 Cycle   9  Pass 1  IDiag  1:
 E= -226.231965480264     Delta-E=       -0.000000000196 Rises=F Damp=F
 DIIS: error= 8.05D-07 at cycle   4 NSaved=   4.
 NSaved= 4 IEnMin= 4 EnMin= -226.231965480264     IErMin= 4 ErrMin= 8.05D-07
 ErrMax= 8.05D-07  0.00D+00 EMaxC= 1.00D-01 BMatC= 6.32D-11 BMatP= 2.57D-10
 IDIUse=1 WtCom= 1.00D+00 WtEn= 0.00D+00
 Coeff-Com:  0.581D-03 0.517D-01 0.415D+00 0.532D+00
 Coeff:      0.581D-03 0.517D-01 0.415D+00 0.532D+00
 Gap=     0.257 Goal=   None    Shift=    0.000
 RMSDP=8.30D-08 MaxDP=1.54D-06 DE=-1.96D-10 OVMax= 3.10D-06

 Cycle  10  Pass 1  IDiag  1:
 E= -226.231965480318     Delta-E=       -0.000000000053 Rises=F Damp=F
 DIIS: error= 3.55D-07 at cycle   5 NSaved=   5.
 NSaved= 5 IEnMin= 5 EnMin= -226.231965480318     IErMin= 5 ErrMin= 3.55D-07
 ErrMax= 3.55D-07  0.00D+00 EMaxC= 1.00D-01 BMatC= 7.90D-12 BMatP= 6.32D-11
 IDIUse=1 WtCom= 1.00D+00 WtEn= 0.00D+00
 Coeff-Com: -0.895D-02 0.224D-01 0.220D+00 0.340D+00 0.427D+00
 Coeff:     -0.895D-02 0.224D-01 0.220D+00 0.340D+00 0.427D+00
 Gap=     0.257 Goal=   None    Shift=    0.000
 RMSDP=3.01D-08 MaxDP=5.93D-07 DE=-5.33D-11 OVMax= 1.13D-06

 Cycle  11  Pass 1  IDiag  1:
 E= -226.231965480325     Delta-E=       -0.000000000007 Rises=F Damp=F
 DIIS: error= 6.24D-08 at cycle   6 NSaved=   6.
 NSaved= 6 IEnMin= 6 EnMin= -226.231965480325     IErMin= 6 ErrMin= 6.24D-08
 ErrMax= 6.24D-08  0.00D+00 EMaxC= 1.00D-01 BMatC= 2.48D-13 BMatP= 7.90D-12
 IDIUse=1 WtCom= 1.00D+00 WtEn= 0.00D+00
 Coeff-Com: -0.370D-02 0.532D-02 0.535D-01 0.939D-01 0.204D+00 0.647D+00
 Coeff:     -0.370D-02 0.532D-02 0.535D-01 0.939D-01 0.204D+00 0.647D+00
 Gap=     0.257 Goal=   None    Shift=    0.000
 RMSDP=6.49D-09 MaxDP=8.03D-08 DE=-7.33D-12 OVMax= 2.33D-07

 SCF Done:  E(RB3LYP) =  -226.231965480     A.U. after   11 cycles
            NFock= 11  Conv=0.65D-08     -V/T= 2.0068
 KE= 2.247148912476D+02 PE=-8.522887982935D+02 EE= 2.384070426641D+02
 Leave Link  502 at Sat Jul 24 12:35:12 2021, MaxMem=   134217728 cpu:              12.6 elap:               0.9
 (Enter /APL/ISV/x86_64/gaussian/16/C.01/g16/l701.exe)
 ... and contract with generalized density number  0.
 Compute integral first derivatives.
 Leave Link  701 at Sat Jul 24 12:35:12 2021, MaxMem=   134217728 cpu:               1.3 elap:               0.1
 (Enter /APL/ISV/x86_64/gaussian/16/C.01/g16/l702.exe)
 L702 exits ... SP integral derivatives will be done elsewhere.
 Leave Link  702 at Sat Jul 24 12:35:12 2021, MaxMem=   134217728 cpu:               0.3 elap:               0.0
 (Enter /APL/ISV/x86_64/gaussian/16/C.01/g16/l703.exe)
 Integral derivatives from FoFJK, PRISM(SPDF).
 Compute integral first derivatives, UseDBF=F ICtDFT=           0.
 Calling FoFJK, ICntrl=      2127 FMM=F ISym2X=0 I1Cent= 0 IOpClX= 0 NMat=1 NMatS=1 NMatT=0.
 FoFJK:  IHMeth= 1 ICntrl=    2127 DoSepK=F KAlg= 0 I1Cent=           0 FoldK=F
 IRaf=         0 NMat=       1 IRICut=       1 DoRegI=T DoRafI=F ISym2E= 0 IDoP0=0 IntGTp=1.
 FoFCou: FMM=F IPFlag=           0 FMFlag=      100000 FMFlg1=         800
         NFxFlg=           0 DoJE=F BraDBF=F KetDBF=F FulRan=T
         wScrn=  0.000000 ICntrl=      2127 IOpCl=  0 I1Cent=           0 NGrid=           0
         NMat0=    1 NMatS0=      1 NMatT0=    0 NMatD0=    1 NMtDS0=    0 NMtDT0=    0
 Symmetry not used in FoFCou.
 Leave Link  703 at Sat Jul 24 12:35:12 2021, MaxMem=   134217728 cpu:               5.9 elap:               0.4
[...]
                                 (Linear)    (Quad)   (Total)
    R1        2.58535  -0.00015  -0.00001  -0.00035  -0.00036   2.58498
    R2        2.05665  -0.00001  -0.00003  -0.00002  -0.00004   2.05661
    R3        2.48997   0.00004  -0.00018   0.00018   0.00000   2.48997
    R4        2.60173  -0.00009  -0.00020  -0.00012  -0.00032   2.60140
    R5        2.05609   0.00002  -0.00007   0.00008   0.00001   2.05611
    R6        2.60562  -0.00004   0.00008  -0.00015  -0.00006   2.60555
    R7        2.60813   0.00002   0.00006   0.00005   0.00011   2.60824
    R8        2.05186  -0.00002   0.00003  -0.00007  -0.00004   2.05182
    R9        1.91206   0.00004  -0.00017   0.00017  -0.00000   1.91206
    A1        2.13409  -0.00002   0.00016  -0.00018  -0.00003   2.13407
    A2        1.95102   0.00004  -0.00006   0.00024   0.00017   1.95119
    A3        2.19807  -0.00002  -0.00009  -0.00005  -0.00015   2.19793
    A4        2.23014   0.00007   0.00013   0.00037   0.00049   2.23064
    A5        1.93442  -0.00005   0.00019  -0.00036  -0.00017   1.93425
    A6        2.11862  -0.00001  -0.00032  -0.00001  -0.00032   2.11829
    A7        1.83192   0.00008  -0.00022   0.00049   0.00027   1.83219
    A8        2.31709   0.00006   0.00058   0.00024   0.00082   2.31791
    A9        2.13417  -0.00014  -0.00036  -0.00073  -0.00109   2.13308
   A10        1.87213  -0.00006   0.00016  -0.00042  -0.00026   1.87187
   A11        2.20692   0.00006   0.00005   0.00034   0.00039   2.20731
   A12        2.20414   0.00000  -0.00021   0.00008  -0.00013   2.20401
   A13        1.83528  -0.00000  -0.00006   0.00005  -0.00001   1.83527
    D1        3.14156   0.00000  -0.00001   0.00012   0.00011  -3.14151
    D2       -0.00007  -0.00000   0.00002  -0.00007  -0.00005  -0.00012
    D3       -0.00010   0.00001  -0.00005   0.00048   0.00043   0.00033
    D4        3.14145   0.00000  -0.00001   0.00029   0.00027  -3.14146
    D5        0.00010  -0.00001   0.00004  -0.00047  -0.00043  -0.00033
    D6       -3.14157  -0.00000   0.00001  -0.00010  -0.00009   3.14153
    D7        3.14158   0.00000  -0.00001   0.00008   0.00007  -3.14153
    D8        0.00000   0.00000  -0.00000  -0.00000  -0.00000  -0.00000
    D9       -0.00000   0.00000  -0.00001  -0.00001  -0.00001  -0.00001
   D10       -3.14158  -0.00000   0.00000  -0.00009  -0.00009   3.14152
   D11       -0.00006   0.00000  -0.00002   0.00029   0.00027   0.00021
   D12        3.14154   0.00000  -0.00002   0.00021   0.00019  -3.14145
   D13        0.00006  -0.00000   0.00003  -0.00027  -0.00024  -0.00018
   D14       -3.14149  -0.00000  -0.00000  -0.00008  -0.00008  -3.14157
   D15       -3.14154  -0.00000   0.00002  -0.00020  -0.00018   3.14146
   D16        0.00009  -0.00000  -0.00001  -0.00001  -0.00002   0.00007
         Item               Value     Threshold  Converged?
 Maximum Force            0.000150     0.000450     YES
 RMS     Force            0.000047     0.000300     YES
 Maximum Displacement     0.001519     0.001800     YES
 RMS     Displacement     0.000352     0.001200     YES
 Predicted change in Energy=-2.070307D-07
 Optimization completed.
    -- Stationary point found.
                           ----------------------------
                           !   Optimized Parameters   !
                           ! (Angstroms and Degrees)  !
 --------------------------                            --------------------------
 ! Name  Definition              Value          Derivative Info.                !
 --------------------------------------------------------------------------------
 ! R1    R(1,4)                  1.3681         -DE/DX =   -0.0002              !
 ! R2    R(1,6)                  1.0883         -DE/DX =    0.0                 !
 ! R3    R(1,9)                  1.3176         -DE/DX =    0.0                 !
 ! R4    R(2,3)                  1.3768         -DE/DX =   -0.0001              !
 ! R5    R(2,7)                  1.088          -DE/DX =    0.0                 !
 ! R6    R(2,9)                  1.3788         -DE/DX =    0.0                 !
 ! R7    R(3,4)                  1.3802         -DE/DX =    0.0                 !
 ! R8    R(3,8)                  1.0858         -DE/DX =    0.0                 !
 ! R9    R(4,5)                  1.0118         -DE/DX =    0.0                 !
 ! A1    A(4,1,6)              122.2745         -DE/DX =    0.0                 !
 ! A2    A(4,1,9)              111.7852         -DE/DX =    0.0                 !
 ! A3    A(6,1,9)              125.9403         -DE/DX =    0.0                 !
 ! A4    A(3,2,7)              127.7779         -DE/DX =    0.0001              !
 ! A5    A(3,2,9)              110.8343         -DE/DX =   -0.0001              !
 ! A6    A(7,2,9)              121.3878         -DE/DX =    0.0                 !
 ! A7    A(2,3,4)              104.9614         -DE/DX =    0.0001              !
 ! A8    A(2,3,8)              132.7595         -DE/DX =    0.0001              !
 ! A9    A(4,3,8)              122.2791         -DE/DX =   -0.0001              !
 ! A10   A(1,4,3)              107.2651         -DE/DX =   -0.0001              !
 ! A11   A(1,4,5)              126.447          -DE/DX =    0.0001              !
 ! A12   A(3,4,5)              126.2879         -DE/DX =    0.0                 !
 ! A13   A(1,9,2)              105.154          -DE/DX =    0.0                 !
 ! D1    D(6,1,4,3)           -180.0019         -DE/DX =    0.0                 !
 ! D2    D(6,1,4,5)             -0.0042         -DE/DX =    0.0                 !
 ! D3    D(9,1,4,3)             -0.006          -DE/DX =    0.0                 !
 ! D4    D(9,1,4,5)           -180.0082         -DE/DX =    0.0                 !
 ! D5    D(4,1,9,2)              0.0058         -DE/DX =    0.0                 !
 ! D6    D(6,1,9,2)            180.0015         -DE/DX =    0.0                 !
 ! D7    D(7,2,3,4)           -180.0005         -DE/DX =    0.0                 !
 ! D8    D(7,2,3,8)              0.0002         -DE/DX =    0.0                 !
 ! D9    D(9,2,3,4)              0.0            -DE/DX =    0.0                 !
 ! D10   D(9,2,3,8)            180.0007         -DE/DX =    0.0                 !
 ! D11   D(3,2,9,1)             -0.0035         -DE/DX =    0.0                 !
 ! D12   D(7,2,9,1)           -180.003          -DE/DX =    0.0                 !
 ! D13   D(2,3,4,1)              0.0034         -DE/DX =    0.0                 !
 ! D14   D(2,3,4,5)           -179.9943         -DE/DX =    0.0                 !
 ! D15   D(8,3,4,1)            180.0028         -DE/DX =    0.0                 !
 ! D16   D(8,3,4,5)              0.0051         -DE/DX =    0.0                 !
 --------------------------------------------------------------------------------
 Lowest energy point so far.  Saving SCF results.
 Largest change from initial coordinates is atom    7       0.030 Angstoms.
 GradGradGradGradGradGradGradGradGradGradGradGradGradGradGradGradGradGrad

 Leave Link  103 at Sat Jul 24 12:35:17 2021, MaxMem=   134217728 cpu:               0.3 elap:               0.0
 (Enter /APL/ISV/x86_64/gaussian/16/C.01/g16/l202.exe)
                          Input orientation:                          
 ---------------------------------------------------------------------
 Center     Atomic      Atomic             Coordinates (Angstroms)
 Number     Number       Type             X           Y           Z
 ---------------------------------------------------------------------
      1          6           0       -1.491242   -1.333086   -0.148383
      2          6           0        0.213799   -0.036916   -0.148471
      3          6           0       -0.883364    0.794793   -0.148546
      4          7           0       -1.972807   -0.052536   -0.148539
      5          1           0       -2.946215    0.223602   -0.148663
      6          1           0       -2.147978   -2.200939   -0.148315
      7          1           0        1.264477    0.245752   -0.148459
      8          1           0       -0.989232    1.875419   -0.148611
      9          7           0       -0.173884   -1.360127   -0.148418
 ---------------------------------------------------------------------
                    Distance matrix (angstroms):
                    1          2          3          4          5
     1  C    0.000000
     2  C    2.141779   0.000000
     3  C    2.213004   1.376774   0.000000
     4  N    1.368106   2.186662   1.380165   0.000000
     5  H    2.130781   3.170734   2.140471   1.011818   0.000000
     6  H    1.088334   3.203277   3.251717   2.155532   2.552564
     7  H    3.175959   1.088038   2.216904   3.250997   4.210750
     8  H    3.247541   2.259272   1.085799   2.164355   2.560915
     9  N    1.317635   1.378834   2.268709   2.223942   3.192807
                    6          7          8          9
     6  H    0.000000
     7  H    4.198946   0.000000
     8  H    4.237852   2.781190   0.000000
     9  N    2.145697   2.155859   3.336697   0.000000
 Stoichiometry    C3H4N2
 Framework group  C1[X(C3H4N2)]
 Deg. of freedom    21
 Full point group                 C1      NOp   1
 RotChk:  IX=0 Diff= 2.41D-15
 Largest Abelian subgroup         C1      NOp   1
 Largest concise Abelian subgroup C1      NOp   1
                         Standard orientation:                         
 ---------------------------------------------------------------------
 Center     Atomic      Atomic             Coordinates (Angstroms)
 Number     Number       Type             X           Y           Z
 ---------------------------------------------------------------------
      1          6           0        0.980385   -0.556087   -0.000093
      2          6           0       -1.141757   -0.266722   -0.000005
      3          6           0       -0.595890    0.997214    0.000069
      4          7           0        0.769479    0.795665    0.000062
      5          1           0        1.480997    1.515052    0.000187
      6          1           0        1.979160   -0.988429   -0.000162
      7          1           0       -2.195520   -0.537663   -0.000017
      8          1           0       -1.035481    1.990049    0.000135
      9          7           0       -0.153135   -1.227872   -0.000058
 ---------------------------------------------------------------------
 Rotational constants (GHZ):           9.7217139           9.3298408           4.7608736
 Leave Link  202 at Sat Jul 24 12:35:17 2021, MaxMem=   134217728 cpu:               0.1 elap:               0.0
 (Enter /APL/ISV/x86_64/gaussian/16/C.01/g16/l601.exe)
 Copying SCF densities to generalized density rwf, IOpCl= 0 IROHF=0.

 **********************************************************************

            Population analysis using the SCF Density.

 **********************************************************************

 Orbital symmetries:
       Occupied  (A) (A) (A) (A) (A) (A) (A) (A) (A) (A) (A) (A)
                 (A) (A) (A) (A) (A) (A)
       Virtual   (A) (A) (A) (A) (A) (A) (A) (A) (A) (A) (A) (A)
                 (A) (A) (A) (A) (A) (A) (A) (A) (A) (A) (A) (A)
                 (A) (A) (A) (A) (A) (A) (A) (A) (A) (A) (A) (A)
                 (A) (A) (A) (A) (A) (A) (A) (A) (A) (A) (A) (A)
                 (A) (A) (A) (A) (A) (A) (A) (A) (A) (A) (A) (A)
                 (A) (A) (A) (A) (A) (A) (A) (A) (A) (A) (A) (A)
 The electronic state is 1-A.
 Alpha  occ. eigenvalues --  -14.38803 -14.30447 -10.23653 -10.21383 -10.19467
 Alpha  occ. eigenvalues --   -1.01101  -0.86749  -0.73986  -0.61328  -0.58664
 Alpha  occ. eigenvalues --   -0.55769  -0.43749  -0.43468  -0.42774  -0.40209
 Alpha  occ. eigenvalues --   -0.28009  -0.26518  -0.22906
 Alpha virt. eigenvalues --    0.02668   0.04534   0.06769   0.09954   0.10496
 Alpha virt. eigenvalues --    0.12438   0.20993   0.22696   0.27621   0.30613
 Alpha virt. eigenvalues --    0.39003   0.41700   0.46442   0.46960   0.49318
 Alpha virt. eigenvalues --    0.51694   0.54621   0.56354   0.56356   0.59366
 Alpha virt. eigenvalues --    0.66707   0.70095   0.70896   0.77516   0.77875
 Alpha virt. eigenvalues --    0.85603   0.85961   0.86239   0.88568   0.92747
 Alpha virt. eigenvalues --    0.97253   1.05067   1.06587   1.08090   1.11878
 Alpha virt. eigenvalues --    1.16248   1.19365   1.22170   1.28996   1.43886
 Alpha virt. eigenvalues --    1.47508   1.50540   1.53900   1.55530   1.60135
 Alpha virt. eigenvalues --    1.63420   1.64978   1.67264   1.75504   1.78799
 Alpha virt. eigenvalues --    1.79406   1.83478   1.87105   1.91754   1.94113
 Alpha virt. eigenvalues --    2.09113   2.09139   2.13006   2.24438   2.26191
 Alpha virt. eigenvalues --    2.32771   2.41112   2.41194   2.43874   2.49930
 Alpha virt. eigenvalues --    2.56236   2.65434   2.69344   2.75732   2.82655
 Alpha virt. eigenvalues --    3.13814   3.39175
          Condensed to atoms (all electrons):
               1          2          3          4          5          6
     1  C    4.709265  -0.154809  -0.106569   0.456997  -0.029314   0.388918
     2  C   -0.154809   4.720009   0.532381  -0.061807   0.011143   0.004176
     3  C   -0.106569   0.532381   4.901020   0.432760  -0.036235   0.006070
     4  N    0.456997  -0.061807   0.432760   5.983509   0.370494  -0.033047
     5  H   -0.029314   0.011143  -0.036235   0.370494   0.596098  -0.003004
     6  H    0.388918   0.004176   0.006070  -0.033047  -0.003004   0.650733
     7  H    0.006316   0.404421  -0.056502   0.003901  -0.000187  -0.000512
     8  H    0.005854  -0.033902   0.387188  -0.030689  -0.004069  -0.000324
     9  N    0.594087   0.547013  -0.084733  -0.069431   0.006025  -0.020162
               7          8          9
     1  C    0.006316   0.005854   0.594087
     2  C    0.404421  -0.033902   0.547013
     3  C   -0.056502   0.387188  -0.084733
     4  N    0.003901  -0.030689  -0.069431
     5  H   -0.000187  -0.004069   0.006025
     6  H   -0.000512  -0.000324  -0.020162
     7  H    0.688024  -0.002140  -0.024282
     8  H   -0.002140   0.677774   0.005113
     9  N   -0.024282   0.005113   6.251292
 Mulliken charges:
               1
     1  C    0.129255
     2  C    0.031374
     3  C    0.024620
     4  N   -0.052687
     5  H    0.089051
     6  H    0.007152
     7  H   -0.019039
     8  H   -0.004805
     9  N   -0.204921
 Sum of Mulliken charges =  -0.00000
 Mulliken charges with hydrogens summed into heavy atoms:
               1
     1  C    0.136407
     2  C    0.012335
     3  C    0.019814
     4  N    0.036365
     9  N   -0.204921
 Electronic spatial extent (au):  <R**2>=            286.0217
 Charge=             -0.0000 electrons
 Dipole moment (field-independent basis, Debye):
    X=              1.7086    Y=              3.2135    Z=              0.0002  Tot=              3.6395
 Quadrupole moment (field-independent basis, Debye-Ang):
   XX=            -23.0398   YY=            -28.8709   ZZ=            -31.2206
   XY=              0.7670   XZ=              0.0001   YZ=              0.0005
 Traceless Quadrupole moment (field-independent basis, Debye-Ang):
   XX=              4.6707   YY=             -1.1604   ZZ=             -3.5102
   XY=              0.7670   XZ=              0.0001   YZ=              0.0005
 Octapole moment (field-independent basis, Debye-Ang**2):
  XXX=              6.6780  YYY=             16.7852  ZZZ=              0.0001  XYY=              5.0627
  XXY=              1.6034  XXZ=              0.0002  XZZ=              1.6095  YZZ=             -0.0088
  YYZ=              0.0014  XYZ=              0.0008
 Hexadecapole moment (field-independent basis, Debye-Ang**3):
 XXXX=           -152.4488 YYYY=           -170.2551 ZZZZ=            -31.0829 XXXY=              7.5564
 XXXZ=              0.0017 YYYX=              2.7296 YYYZ=             -0.0039 ZZZX=              0.0018
 ZZZY=             -0.0056 XXYY=            -46.1196 XXZZ=            -37.6079 YYZZ=            -35.7422
 XXYZ=             -0.0000 YYXZ=              0.0008 ZZXY=              1.5950
 N-N= 1.627386328402D+02 E-N=-8.518775775809D+02  KE= 2.246932771229D+02
 No NMR shielding tensors so no spin-rotation constants.
 Leave Link  601 at Sat Jul 24 12:35:17 2021, MaxMem=   134217728 cpu:               1.1 elap:               0.1
 (Enter /APL/ISV/x86_64/gaussian/16/C.01/g16/l602.exe)
 FitSet:  NAtFit=     9 NAtPot=     9 NAtFrz=     0 MDM=    13 TotChg=   0.00000
 Merz-Kollman atomic radii used.

 **********************************************************************

            Electrostatic Properties Using The SCF Density.

 **********************************************************************

       Atomic Center    1 is at   0.980385 -0.556087 -0.000093
       Atomic Center    2 is at  -1.141757 -0.266722 -0.000005
       Atomic Center    3 is at  -0.595890  0.997214  0.000069
       Atomic Center    4 is at   0.769479  0.795665  0.000062
       Atomic Center    5 is at   1.480997  1.515052  0.000187
       Atomic Center    6 is at   1.979160 -0.988429 -0.000162
       Atomic Center    7 is at  -2.195520 -0.537663 -0.000017
       Atomic Center    8 is at  -1.035481  1.990049  0.000135
       Atomic Center    9 is at  -0.153135 -1.227872 -0.000058
     562 points will be used for fitting atomic charges
 Fitting point charges to electrostatic potential
 Charges from ESP fit, RMS=   0.00233 RRMS=   0.11293:
 ESP charges:
               1
     1  C    0.109578
     2  C    0.068715
     3  C   -0.271704
     4  N   -0.111072
     5  H    0.262875
     6  H    0.098088
     7  H    0.103067
     8  H    0.169758
     9  N   -0.429307
 Sum of ESP charges =  -0.00000
 ESP charges with hydrogens summed into heavy atoms:
               1
     1  C    0.207666
     2  C    0.171782
     3  C   -0.101945
     4  N    0.151803
     9  N   -0.429307
 Charge=  -0.00000 Dipole=     1.6933     3.2291     0.0002 Tot=     3.6461
 -----------------------------------------------------------------

              Electrostatic Properties (Atomic Units)

 -----------------------------------------------------------------
    Center     Electric         -------- Electric Field --------
               Potential          X             Y             Z
 -----------------------------------------------------------------
    1 Atom    -14.706541
    2 Atom    -14.750035
    3 Atom    -14.730316
    4 Atom    -18.314780
    5 Atom     -0.975247
    6 Atom     -1.070063
    7 Atom     -1.098546
    8 Atom     -1.066322
    9 Atom    -18.409330
 -----------------------------------------------------------------
 Leave Link  602 at Sat Jul 24 12:35:17 2021, MaxMem=   134217728 cpu:               0.6 elap:               0.1
 (Enter /APL/ISV/x86_64/gaussian/16/C.01/g16/l9999.exe)
 Unable to Open any file for archive entry.
 1\1\GINC-PEACH01\FOpt\RB3LYP\CC-pVDZ\C3H4N2\YAGI\24-Jul-2021\0\\#P B3L
 YP/cc-pVDZ opt pop=esp\\B3LYP/cc-pVDZ imidazole\\0,1\C,-1.4912416015,-
 1.3330863588,-0.1483833048\C,0.2137986145,-0.0369164428,-0.1484707594\
 C,-0.883363571,0.7947932443,-0.1485455303\N,-1.9728073551,-0.052535964
 6,-0.1485386234\H,-2.9462151615,0.223602116,-0.1486634483\H,-2.1479781
 98,-2.2009388587,-0.1483145665\H,1.2644767003,0.2457518527,-0.14845903
 55\H,-0.9892315437,1.8754191591,-0.1486107593\N,-0.1738837941,-1.36012
 65272,-0.1484181624\\Version=ES64L-G16RevC.01\State=1-A\HF=-226.232001
 3\RMSD=3.596e-09\RMSF=7.602e-05\Dipole=-1.2073098,0.7698454,-0.0000931
 \Quadrupole=2.9113016,-0.3015422,-2.6097594,1.5630843,0.000245,-0.0002
 562\PG=C01 [X(C3H4N2)]\\@
 The archive entry for this job was punched.


 SOME PEOPLE TRY TO PULL THE WOOL OVER YOUR EYES
 USING THE WRONG YARN.
 Job cpu time:       0 days  0 hours  2 minutes 31.1 seconds.
 Elapsed time:       0 days  0 hours  0 minutes 11.6 seconds.
 File lengths (MBytes):  RWF=     10 Int=      0 D2E=      0 Chk=      3 Scr=      1
 Normal termination of Gaussian 16 at Sat Jul 24 12:35:17 2021.

real	0m12.341s
user	2m26.559s
sys	0m4.593s
