 Entering Gaussian System, Link 0=g16
 Initial command:
 /APL/ISV/x86_64/gaussian/16/C.01/g16/l1.exe "/scr/yagi/h2co-b3lyp-dz.9883/Gau-9893.inp" -scrdir="/scr/yagi/h2co-b3lyp-dz.9883/"
 Entering Link 1 = /APL/ISV/x86_64/gaussian/16/C.01/g16/l1.exe PID=      9894.
  
 Copyright (c) 1988-2019, Gaussian, Inc.  All Rights Reserved.
  
 This is part of the Gaussian(R) 16 program.  It is based on
 the Gaussian(R) 09 system (copyright 2009, Gaussian, Inc.),
 the Gaussian(R) 03 system (copyright 2003, Gaussian, Inc.),
 the Gaussian(R) 98 system (copyright 1998, Gaussian, Inc.),
 the Gaussian(R) 94 system (copyright 1995, Gaussian, Inc.),
 the Gaussian 92(TM) system (copyright 1992, Gaussian, Inc.),
 the Gaussian 90(TM) system (copyright 1990, Gaussian, Inc.),
 the Gaussian 88(TM) system (copyright 1988, Gaussian, Inc.),
 the Gaussian 86(TM) system (copyright 1986, Carnegie Mellon
 University), and the Gaussian 82(TM) system (copyright 1983,
 Carnegie Mellon University). Gaussian is a federally registered
 trademark of Gaussian, Inc.
  
 This software contains proprietary and confidential information,
 including trade secrets, belonging to Gaussian, Inc.
  
 This software is provided under written license and may be
 used, copied, transmitted, or stored only in accord with that
 written license.
  
 The following legend is applicable only to US Government
 contracts under FAR:
  
                    RESTRICTED RIGHTS LEGEND
  
 Use, reproduction and disclosure by the US Government is
 subject to restrictions as set forth in subparagraphs (a)
 and (c) of the Commercial Computer Software - Restricted
 Rights clause in FAR 52.227-19.
  
 Gaussian, Inc.
 340 Quinnipiac St., Bldg. 40, Wallingford CT 06492
  
  
 ---------------------------------------------------------------
 Warning -- This program may not be used in any manner that
 competes with the business of Gaussian, Inc. or will provide
 assistance to any competitor of Gaussian, Inc.  The licensee
 of this program is prohibited from giving any competitor of
 Gaussian, Inc. access to this program.  By using this program,
 the user acknowledges that Gaussian, Inc. is engaged in the
 business of creating and licensing software in the field of
 computational chemistry and represents and warrants to the
 licensee that it is not a competitor of Gaussian, Inc. and that
 it will not use this program in any manner prohibited above.
 ---------------------------------------------------------------
  

 Cite this work as:
 Gaussian 16, Revision C.01,
 M. J. Frisch, G. W. Trucks, H. B. Schlegel, G. E. Scuseria, 
 M. A. Robb, J. R. Cheeseman, G. Scalmani, V. Barone, 
 G. A. Petersson, H. Nakatsuji, X. Li, M. Caricato, A. V. Marenich, 
 J. Bloino, B. G. Janesko, R. Gomperts, B. Mennucci, H. P. Hratchian, 
 J. V. Ortiz, A. F. Izmaylov, J. L. Sonnenberg, D. Williams-Young, 
 F. Ding, F. Lipparini, F. Egidi, J. Goings, B. Peng, A. Petrone, 
 T. Henderson, D. Ranasinghe, V. G. Zakrzewski, J. Gao, N. Rega, 
 G. Zheng, W. Liang, M. Hada, M. Ehara, K. Toyota, R. Fukuda, 
 J. Hasegawa, M. Ishida, T. Nakajima, Y. Honda, O. Kitao, H. Nakai, 
 T. Vreven, K. Throssell, J. A. Montgomery, Jr., J. E. Peralta, 
 F. Ogliaro, M. J. Bearpark, J. J. Heyd, E. N. Brothers, K. N. Kudin, 
 V. N. Staroverov, T. A. Keith, R. Kobayashi, J. Normand, 
 K. Raghavachari, A. P. Rendell, J. C. Burant, S. S. Iyengar, 
 J. Tomasi, M. Cossi, J. M. Millam, M. Klene, C. Adamo, R. Cammi, 
 J. W. Ochterski, R. L. Martin, K. Morokuma, O. Farkas, 
 J. B. Foresman, and D. J. Fox, Gaussian, Inc., Wallingford CT, 2019.
 
 ******************************************
 Gaussian 16:  ES64L-G16RevC.01  3-Jul-2019
                16-Jun-2021 
 ******************************************
 %chk=h2co-b3lyp-dz.chk
 %mem=1gb
 -------------------------
 #p b3lyp/cc-pvdz opt freq
 -------------------------
 1/18=20,19=15,26=3,38=1/1,3;
 2/9=110,12=2,17=6,18=5,40=1/2;
 3/5=16,11=2,25=1,30=1,71=1,74=-5/1,2,3;
 4//1;
 5/5=2,38=5/2;
 6/7=2,8=2,9=2,10=2,28=1/1;
 7//1,2,3,16;
 1/18=20,19=15,26=3/3(2);
 2/9=110/2;
 99//99;
 2/9=110/2;
 3/5=16,11=2,25=1,30=1,71=1,74=-5/1,2,3;
 4/5=5,16=3,69=1/1;
 5/5=2,38=5/2;
 7//1,2,3,16;
 1/18=20,19=15,26=3/3(-5);
 2/9=110/2;
 6/7=2,8=2,9=2,10=2,19=2,28=1/1;
 99/9=1/99;
 Leave Link    1 at Wed Jun 16 17:00:29 2021, MaxMem=   134217728 cpu:               0.0 elap:               0.0
 (Enter /APL/ISV/x86_64/gaussian/16/C.01/g16/l101.exe)
 -----------------------------
 H2CO b3lyp/cc-pvdz (opt/freq)
 -----------------------------
 Symbolic Z-matrix:
 Charge =  0 Multiplicity = 1
 C                     0.        0.       -0.5326 
 O                     0.        0.        0.6803 
 H                    -0.93586   0.       -1.11098 
 H                     0.93586   0.       -1.11098 
 
 ITRead=  0  0  0  0
 MicOpt= -1 -1 -1 -1
 NAtoms=      4 NQM=        4 NQMF=       0 NMMI=      0 NMMIF=      0
                NMic=       0 NMicF=      0.
                    Isotopes and Nuclear Properties:
 (Nuclear quadrupole moments (NQMom) in fm**2, nuclear magnetic moments (NMagM)
  in nuclear magnetons)

  Atom         1           2           3           4
 IAtWgt=          12          16           1           1
 AtmWgt=  12.0000000  15.9949146   1.0078250   1.0078250
 NucSpn=           0           0           1           1
 AtZEff=  -0.0000000  -0.0000000  -0.0000000  -0.0000000
 NQMom=    0.0000000   0.0000000   0.0000000   0.0000000
 NMagM=    0.0000000   0.0000000   2.7928460   2.7928460
 AtZNuc=   6.0000000   8.0000000   1.0000000   1.0000000
 Leave Link  101 at Wed Jun 16 17:00:30 2021, MaxMem=   134217728 cpu:               0.4 elap:               0.4
 (Enter /APL/ISV/x86_64/gaussian/16/C.01/g16/l103.exe)

 GradGradGradGradGradGradGradGradGradGradGradGradGradGradGradGradGradGrad
 Berny optimization.
 Initialization pass.
                           ----------------------------
                           !    Initial Parameters    !
                           ! (Angstroms and Degrees)  !
 --------------------------                            --------------------------
 ! Name  Definition              Value          Derivative Info.                !
 --------------------------------------------------------------------------------
 ! R1    R(1,2)                  1.2129         estimate D2E/DX2                !
 ! R2    R(1,3)                  1.1002         estimate D2E/DX2                !
 ! R3    R(1,4)                  1.1002         estimate D2E/DX2                !
 ! A1    A(2,1,3)              121.7168         estimate D2E/DX2                !
 ! A2    A(2,1,4)              121.7168         estimate D2E/DX2                !
 ! A3    A(3,1,4)              116.5664         estimate D2E/DX2                !
 ! D1    D(2,1,4,3)            180.0            estimate D2E/DX2                !
 --------------------------------------------------------------------------------
 Trust Radius=3.00D-01 FncErr=1.00D-07 GrdErr=1.00D-06 EigMax=2.50D+02 EigMin=1.00D-04
 Number of steps in this run=     20 maximum allowed number of steps=    100.
 GradGradGradGradGradGradGradGradGradGradGradGradGradGradGradGradGradGrad

 Leave Link  103 at Wed Jun 16 17:00:30 2021, MaxMem=   134217728 cpu:               0.0 elap:               0.0
 (Enter /APL/ISV/x86_64/gaussian/16/C.01/g16/l202.exe)
                          Input orientation:                          
 ---------------------------------------------------------------------
 Center     Atomic      Atomic             Coordinates (Angstroms)
 Number     Number       Type             X           Y           Z
 ---------------------------------------------------------------------
      1          6           0        0.000000    0.000000   -0.532603
      2          8           0        0.000000    0.000000    0.680303
      3          1           0       -0.935861    0.000000   -1.110982
      4          1           0        0.935861    0.000000   -1.110982
 ---------------------------------------------------------------------
                    Distance matrix (angstroms):
                    1          2          3          4
     1  C    0.000000
     2  O    1.212906   0.000000
     3  H    1.100162   2.021024   0.000000
     4  H    1.100162   2.021024   1.871721   0.000000
 Stoichiometry    CH2O
 Framework group  C2V[C2(CO),SGV(H2)]
 Deg. of freedom     3
 Full point group                 C2V     NOp   4
 Largest Abelian subgroup         C2V     NOp   4
 Largest concise Abelian subgroup C2      NOp   2
                         Standard orientation:                         
 ---------------------------------------------------------------------
 Center     Atomic      Atomic             Coordinates (Angstroms)
 Number     Number       Type             X           Y           Z
 ---------------------------------------------------------------------
      1          6           0        0.000000    0.000000   -0.534156
      2          8           0       -0.000000    0.000000    0.678750
      3          1           0        0.000000    0.935861   -1.112535
      4          1           0       -0.000000   -0.935861   -1.112535
 ---------------------------------------------------------------------
 Rotational constants (GHZ):         286.2726047          38.5030059          33.9383729
 Leave Link  202 at Wed Jun 16 17:00:30 2021, MaxMem=   134217728 cpu:               0.0 elap:               0.0
 (Enter /APL/ISV/x86_64/gaussian/16/C.01/g16/l301.exe)
 Standard basis: CC-pVDZ (5D, 7F)
 Ernie: Thresh=  0.10000D-02 Tol=  0.10000D-05 Strict=F.
 Ernie:  4 primitive shells out of 54 were deleted.
 There are    20 symmetry adapted cartesian basis functions of A1  symmetry.
 There are     3 symmetry adapted cartesian basis functions of A2  symmetry.
 There are     7 symmetry adapted cartesian basis functions of B1  symmetry.
 There are    10 symmetry adapted cartesian basis functions of B2  symmetry.
 There are    18 symmetry adapted basis functions of A1  symmetry.
 There are     3 symmetry adapted basis functions of A2  symmetry.
 There are     7 symmetry adapted basis functions of B1  symmetry.
 There are    10 symmetry adapted basis functions of B2  symmetry.
    38 basis functions,    80 primitive gaussians,    40 cartesian basis functions
     8 alpha electrons        8 beta electrons
       nuclear repulsion energy        31.1859486165 Hartrees.
 IExCor=  402 DFT=T Ex+Corr=B3LYP ExCW=0 ScaHFX=  0.200000
 ScaDFX=  0.800000  0.720000  1.000000  0.810000 ScalE2=  1.000000  1.000000
 IRadAn=      5 IRanWt=     -1 IRanGd=            0 ICorTp=0 IEmpDi=  4
 NAtoms=    4 NActive=    4 NUniq=    3 SFac= 1.78D+00 NAtFMM=   60 NAOKFM=F Big=F
 Integral buffers will be    131072 words long.
 Raffenetti 2 integral format.
 Two-electron integral symmetry is turned on.
 Leave Link  301 at Wed Jun 16 17:00:30 2021, MaxMem=   134217728 cpu:               0.1 elap:               0.1
 (Enter /APL/ISV/x86_64/gaussian/16/C.01/g16/l302.exe)
 NPDir=0 NMtPBC=     1 NCelOv=     1 NCel=       1 NClECP=     1 NCelD=      1
         NCelK=      1 NCelE2=     1 NClLst=     1 CellRange=     0.0.
 One-electron integrals computed using PRISM.
 One-electron integral symmetry used in STVInt
 NBasis=    38 RedAO= T EigKep=  1.92D-02  NBF=    18     3     7    10
 NBsUse=    38 1.00D-06 EigRej= -1.00D+00 NBFU=    18     3     7    10
 Precomputing XC quadrature grid using
 IXCGrd= 4 IRadAn=           5 IRanWt=          -1 IRanGd=           0 AccXCQ= 0.00D+00.
 Generated NRdTot=       0 NPtTot=           0 NUsed=           0 NTot=          32
 NSgBfM=    40    40    40    40    40 MxSgAt=     4 MxSgA2=     4.
 Leave Link  302 at Wed Jun 16 17:00:30 2021, MaxMem=   134217728 cpu:               0.1 elap:               0.1
 (Enter /APL/ISV/x86_64/gaussian/16/C.01/g16/l303.exe)
 DipDrv:  MaxL=1.
 Leave Link  303 at Wed Jun 16 17:00:30 2021, MaxMem=   134217728 cpu:               0.0 elap:               0.0
 (Enter /APL/ISV/x86_64/gaussian/16/C.01/g16/l401.exe)
 ExpMin= 1.22D-01 ExpMax= 1.17D+04 ExpMxC= 4.01D+02 IAcc=3 IRadAn=         5 AccDes= 0.00D+00
 Harris functional with IExCor=  402 and IRadAn=       5 diagonalized for initial guess.
 HarFok:  IExCor=  402 AccDes= 0.00D+00 IRadAn=         5 IDoV= 1 UseB2=F ITyADJ=14
 ICtDFT=  3500011 ScaDFX=  1.000000  1.000000  1.000000  1.000000
 FoFCou: FMM=F IPFlag=           0 FMFlag=      100000 FMFlg1=           0
         NFxFlg=           0 DoJE=T BraDBF=F KetDBF=T FulRan=T
         wScrn=  0.000000 ICntrl=       500 IOpCl=  0 I1Cent=   200000004 NGrid=           0
         NMat0=    1 NMatS0=      1 NMatT0=    0 NMatD0=    1 NMtDS0=    0 NMtDT0=    0
 Petite list used in FoFCou.
 Harris En= -114.513681775300    
 JPrj=0 DoOrth=F DoCkMO=F.
 Initial guess orbital symmetries:
       Occupied  (A1) (A1) (A1) (A1) (B2) (A1) (B1) (B2)
       Virtual   (B1) (A1) (B2) (A1) (B1) (A1) (B2) (A1) (B2) (A1)
                 (A1) (A2) (B1) (B2) (B1) (A1) (B2) (A1) (B2) (A1)
                 (B1) (A2) (A1) (B2) (A1) (A2) (A1) (B1) (B2) (A1)
 The electronic state of the initial guess is 1-A1.
 Leave Link  401 at Wed Jun 16 17:00:31 2021, MaxMem=   134217728 cpu:               0.2 elap:               0.2
 (Enter /APL/ISV/x86_64/gaussian/16/C.01/g16/l502.exe)
 Keep R1 ints in memory in symmetry-blocked form, NReq=1142656.
 FoFCou: FMM=F IPFlag=           0 FMFlag=           0 FMFlg1=           0
         NFxFlg=           0 DoJE=F BraDBF=F KetDBF=F FulRan=T
         wScrn=  0.000000 ICntrl=       600 IOpCl=  0 I1Cent=           0 NGrid=           0
         NMat0=    1 NMatS0=    741 NMatT0=    0 NMatD0=    1 NMtDS0=    0 NMtDT0=    0
 Petite list used in FoFCou.
 Closed shell SCF:
 Using DIIS extrapolation, IDIIS=  1040.
 NGot=   134217728 LenX=   134136439 LenY=   134134398
 Requested convergence on RMS density matrix=1.00D-08 within 128 cycles.
 Requested convergence on MAX density matrix=1.00D-06.
 Requested convergence on             energy=1.00D-06.
 No special actions if energy rises.
 Integral accuracy reduced to 1.0D-05 until final iterations.

 Cycle   1  Pass 0  IDiag  1:
 E= -114.455834593641    
 DIIS: error= 4.28D-02 at cycle   1 NSaved=   1.
 NSaved= 1 IEnMin= 1 EnMin= -114.455834593641     IErMin= 1 ErrMin= 4.28D-02
 ErrMax= 4.28D-02  0.00D+00 EMaxC= 1.00D-01 BMatC= 6.08D-02 BMatP= 6.08D-02
 IDIUse=3 WtCom= 5.72D-01 WtEn= 4.28D-01
 Coeff-Com:  0.100D+01
 Coeff-En:   0.100D+01
 Coeff:      0.100D+01
 Gap=     0.169 Goal=   None    Shift=    0.000
 GapD=    0.169 DampG=1.000 DampE=0.500 DampFc=0.5000 IDamp=-1.
 Damping current iteration by 5.00D-01
 RMSDP=1.60D-02 MaxDP=1.77D-01              OVMax= 2.84D-01

 Cycle   2  Pass 0  IDiag  1:
 E= -114.454527391225     Delta-E=        0.001307202416 Rises=F Damp=T
 DIIS: error= 2.21D-02 at cycle   2 NSaved=   2.
 NSaved= 2 IEnMin= 1 EnMin= -114.455834593641     IErMin= 2 ErrMin= 2.21D-02
 ErrMax= 2.21D-02  0.00D+00 EMaxC= 1.00D-01 BMatC= 1.99D-02 BMatP= 6.08D-02
 IDIUse=3 WtCom= 7.79D-01 WtEn= 2.21D-01
 Coeff-Com:  0.346D+00 0.654D+00
 Coeff-En:   0.509D+00 0.491D+00
 Coeff:      0.382D+00 0.618D+00
 Gap=     0.214 Goal=   None    Shift=    0.000
 RMSDP=3.47D-03 MaxDP=3.55D-02 DE= 1.31D-03 OVMax= 2.05D-01

 Cycle   3  Pass 0  IDiag  1:
 E= -114.504818206955     Delta-E=       -0.050290815730 Rises=F Damp=F
 DIIS: error= 8.90D-03 at cycle   3 NSaved=   3.
 NSaved= 3 IEnMin= 3 EnMin= -114.504818206955     IErMin= 3 ErrMin= 8.90D-03
 ErrMax= 8.90D-03  0.00D+00 EMaxC= 1.00D-01 BMatC= 2.11D-03 BMatP= 1.99D-02
 IDIUse=3 WtCom= 9.11D-01 WtEn= 8.90D-02
 Coeff-Com:  0.133D+00 0.272D+00 0.595D+00
 Coeff-En:   0.000D+00 0.000D+00 0.100D+01
 Coeff:      0.121D+00 0.248D+00 0.631D+00
 Gap=     0.218 Goal=   None    Shift=    0.000
 RMSDP=1.33D-03 MaxDP=1.51D-02 DE=-5.03D-02 OVMax= 2.08D-02

 Cycle   4  Pass 0  IDiag  1:
 E= -114.506923558691     Delta-E=       -0.002105351736 Rises=F Damp=F
 DIIS: error= 2.56D-03 at cycle   4 NSaved=   4.
 NSaved= 4 IEnMin= 4 EnMin= -114.506923558691     IErMin= 4 ErrMin= 2.56D-03
 ErrMax= 2.56D-03  0.00D+00 EMaxC= 1.00D-01 BMatC= 1.83D-04 BMatP= 2.11D-03
 IDIUse=3 WtCom= 9.74D-01 WtEn= 2.56D-02
 Coeff-Com:  0.160D-01 0.693D-02 0.222D+00 0.755D+00
 Coeff-En:   0.000D+00 0.000D+00 0.000D+00 0.100D+01
 Coeff:      0.156D-01 0.675D-02 0.216D+00 0.762D+00
 Gap=     0.220 Goal=   None    Shift=    0.000
 RMSDP=2.62D-04 MaxDP=3.95D-03 DE=-2.11D-03 OVMax= 4.17D-03

 Cycle   5  Pass 0  IDiag  1:
 E= -114.507089355440     Delta-E=       -0.000165796749 Rises=F Damp=F
 DIIS: error= 3.06D-04 at cycle   5 NSaved=   5.
 NSaved= 5 IEnMin= 5 EnMin= -114.507089355440     IErMin= 5 ErrMin= 3.06D-04
 ErrMax= 3.06D-04  0.00D+00 EMaxC= 1.00D-01 BMatC= 2.78D-06 BMatP= 1.83D-04
 IDIUse=3 WtCom= 9.97D-01 WtEn= 3.06D-03
 Coeff-Com:  0.275D-02-0.868D-02 0.330D-01 0.153D+00 0.820D+00
 Coeff-En:   0.000D+00 0.000D+00 0.000D+00 0.000D+00 0.100D+01
 Coeff:      0.274D-02-0.866D-02 0.329D-01 0.153D+00 0.820D+00
 Gap=     0.221 Goal=   None    Shift=    0.000
 RMSDP=4.12D-05 MaxDP=3.70D-04 DE=-1.66D-04 OVMax= 5.03D-04

 Cycle   6  Pass 0  IDiag  1:
 E= -114.507091883792     Delta-E=       -0.000002528352 Rises=F Damp=F
 DIIS: error= 3.81D-05 at cycle   6 NSaved=   6.
 NSaved= 6 IEnMin= 6 EnMin= -114.507091883792     IErMin= 6 ErrMin= 3.81D-05
 ErrMax= 3.81D-05  0.00D+00 EMaxC= 1.00D-01 BMatC= 6.11D-08 BMatP= 2.78D-06
 IDIUse=1 WtCom= 1.00D+00 WtEn= 0.00D+00
 Coeff-Com:  0.391D-03-0.117D-02 0.555D-03-0.116D-02 0.175D-01 0.984D+00
 Coeff:      0.391D-03-0.117D-02 0.555D-03-0.116D-02 0.175D-01 0.984D+00
 Gap=     0.221 Goal=   None    Shift=    0.000
 RMSDP=6.31D-06 MaxDP=6.04D-05 DE=-2.53D-06 OVMax= 7.31D-05

 Initial convergence to 1.0D-05 achieved.  Increase integral accuracy.
 Cycle   7  Pass 1  IDiag  1:
 E= -114.507091585555     Delta-E=        0.000000298237 Rises=F Damp=F
 DIIS: error= 2.56D-06 at cycle   1 NSaved=   1.
 NSaved= 1 IEnMin= 1 EnMin= -114.507091585555     IErMin= 1 ErrMin= 2.56D-06
 ErrMax= 2.56D-06  0.00D+00 EMaxC= 1.00D-01 BMatC= 4.09D-10 BMatP= 4.09D-10
 IDIUse=1 WtCom= 1.00D+00 WtEn= 0.00D+00
 Coeff-Com:  0.100D+01
 Coeff:      0.100D+01
 Gap=     0.221 Goal=   None    Shift=    0.000
 RMSDP=6.31D-06 MaxDP=6.04D-05 DE= 2.98D-07 OVMax= 1.66D-05

 Cycle   8  Pass 1  IDiag  1:
 E= -114.507091584892     Delta-E=        0.000000000663 Rises=F Damp=F
 DIIS: error= 6.07D-06 at cycle   2 NSaved=   2.
 NSaved= 2 IEnMin= 1 EnMin= -114.507091585555     IErMin= 1 ErrMin= 2.56D-06
 ErrMax= 6.07D-06  0.00D+00 EMaxC= 1.00D-01 BMatC= 1.25D-09 BMatP= 4.09D-10
 IDIUse=1 WtCom= 1.00D+00 WtEn= 0.00D+00
 Coeff-Com:  0.643D+00 0.357D+00
 Coeff:      0.643D+00 0.357D+00
 Gap=     0.221 Goal=   None    Shift=    0.000
 RMSDP=6.35D-07 MaxDP=9.88D-06 DE= 6.63D-10 OVMax= 1.75D-05

 Cycle   9  Pass 1  IDiag  1:
 E= -114.507091585852     Delta-E=       -0.000000000960 Rises=F Damp=F
 DIIS: error= 9.65D-07 at cycle   3 NSaved=   3.
 NSaved= 3 IEnMin= 3 EnMin= -114.507091585852     IErMin= 3 ErrMin= 9.65D-07
 ErrMax= 9.65D-07  0.00D+00 EMaxC= 1.00D-01 BMatC= 3.90D-11 BMatP= 4.09D-10
 IDIUse=1 WtCom= 1.00D+00 WtEn= 0.00D+00
 Coeff-Com:  0.129D+00 0.180D+00 0.691D+00
 Coeff:      0.129D+00 0.180D+00 0.691D+00
 Gap=     0.221 Goal=   None    Shift=    0.000
 RMSDP=1.40D-07 MaxDP=1.23D-06 DE=-9.60D-10 OVMax= 1.78D-06

 Cycle  10  Pass 1  IDiag  1:
 E= -114.507091585881     Delta-E=       -0.000000000029 Rises=F Damp=F
 DIIS: error= 2.10D-07 at cycle   4 NSaved=   4.
 NSaved= 4 IEnMin= 4 EnMin= -114.507091585881     IErMin= 4 ErrMin= 2.10D-07
 ErrMax= 2.10D-07  0.00D+00 EMaxC= 1.00D-01 BMatC= 1.20D-12 BMatP= 3.90D-11
 IDIUse=1 WtCom= 1.00D+00 WtEn= 0.00D+00
 Coeff-Com:  0.130D-01 0.589D-01 0.226D+00 0.702D+00
 Coeff:      0.130D-01 0.589D-01 0.226D+00 0.702D+00
 Gap=     0.221 Goal=   None    Shift=    0.000
 RMSDP=2.31D-08 MaxDP=3.03D-07 DE=-2.93D-11 OVMax= 3.45D-07

 Cycle  11  Pass 1  IDiag  1:
 E= -114.507091585882     Delta-E=       -0.000000000001 Rises=F Damp=F
 DIIS: error= 4.44D-08 at cycle   5 NSaved=   5.
 NSaved= 5 IEnMin= 5 EnMin= -114.507091585882     IErMin= 5 ErrMin= 4.44D-08
 ErrMax= 4.44D-08  0.00D+00 EMaxC= 1.00D-01 BMatC= 6.60D-14 BMatP= 1.20D-12
 IDIUse=1 WtCom= 1.00D+00 WtEn= 0.00D+00
 Coeff-Com: -0.110D-01 0.170D-02-0.474D-02 0.194D+00 0.820D+00
 Coeff:     -0.110D-01 0.170D-02-0.474D-02 0.194D+00 0.820D+00
 Gap=     0.221 Goal=   None    Shift=    0.000
 RMSDP=7.21D-09 MaxDP=7.11D-08 DE=-1.22D-12 OVMax= 9.49D-08

 SCF Done:  E(RB3LYP) =  -114.507091586     A.U. after   11 cycles
            NFock= 11  Conv=0.72D-08     -V/T= 2.0062
 KE= 1.138055768913D+02 PE=-3.311451000498D+02 EE= 7.164648295608D+01
 Leave Link  502 at Wed Jun 16 17:00:31 2021, MaxMem=   134217728 cpu:               0.6 elap:               0.6
 (Enter /APL/ISV/x86_64/gaussian/16/C.01/g16/l601.exe)
 Copying SCF densities to generalized density rwf, IOpCl= 0 IROHF=0.

 **********************************************************************

            Population analysis using the SCF Density.

 **********************************************************************

 Orbital symmetries:
       Occupied  (A1) (A1) (A1) (A1) (B2) (A1) (B1) (B2)
       Virtual   (B1) (A1) (B2) (A1) (B1) (A1) (B2) (B2) (A1) (A1)
                 (A1) (A2) (B1) (B2) (B1) (A1) (B2) (A1) (B2) (B1)
                 (A1) (A2) (A1) (B2) (A1) (A2) (A1) (B1) (B2) (A1)
 The electronic state is 1-A1.
 Alpha  occ. eigenvalues --  -19.15822 -10.28658  -1.05727  -0.63785  -0.49553
 Alpha  occ. eigenvalues --   -0.44725  -0.39666  -0.26659
 Alpha virt. eigenvalues --   -0.04593   0.06901   0.13436   0.20774   0.45097
 Alpha virt. eigenvalues --    0.46372   0.54442   0.59625   0.62250   0.76448
 Alpha virt. eigenvalues --    0.87484   0.92615   0.98054   1.05552   1.16630
 Alpha virt. eigenvalues --    1.41947   1.43369   1.54282   1.67368   1.67411
 Alpha virt. eigenvalues --    1.69024   1.74355   2.25526   2.33240   2.40710
 Alpha virt. eigenvalues --    2.67404   2.80611   3.02652   3.32508   3.41086
          Condensed to atoms (all electrons):
               1          2          3          4
     1  C    4.400171   0.700587   0.361931   0.361931
     2  O    0.700587   7.587580  -0.048863  -0.048863
     3  H    0.361931  -0.048863   0.780947  -0.101548
     4  H    0.361931  -0.048863  -0.101548   0.780947
 Mulliken charges:
               1
     1  C    0.175379
     2  O   -0.190442
     3  H    0.007532
     4  H    0.007532
 Sum of Mulliken charges =  -0.00000
 Mulliken charges with hydrogens summed into heavy atoms:
               1
     1  C    0.190442
     2  O   -0.190442
 Electronic spatial extent (au):  <R**2>=             60.2180
 Charge=             -0.0000 electrons
 Dipole moment (field-independent basis, Debye):
    X=              0.0000    Y=             -0.0000    Z=             -2.1310  Tot=              2.1310
 Quadrupole moment (field-independent basis, Debye-Ang):
   XX=            -11.3905   YY=            -11.4972   ZZ=            -11.8782
   XY=              0.0000   XZ=             -0.0000   YZ=              0.0000
 Traceless Quadrupole moment (field-independent basis, Debye-Ang):
   XX=              0.1981   YY=              0.0914   ZZ=             -0.2896
   XY=              0.0000   XZ=             -0.0000   YZ=              0.0000
 Octapole moment (field-independent basis, Debye-Ang**2):
  XXX=              0.0000  YYY=              0.0000  ZZZ=              1.3720  XYY=              0.0000
  XXY=              0.0000  XXZ=              0.9751  XZZ=              0.0000  YZZ=              0.0000
  YYZ=              0.1788  XYZ=             -0.0000
 Hexadecapole moment (field-independent basis, Debye-Ang**3):
 XXXX=             -9.3773 YYYY=            -18.2331 ZZZZ=            -44.1968 XXXY=             -0.0000
 XXXZ=             -0.0000 YYYX=             -0.0000 YYYZ=             -0.0000 ZZZX=             -0.0000
 ZZZY=             -0.0000 XXYY=             -4.8267 XXZZ=             -8.8569 YYZZ=            -10.1720
 XXYZ=              0.0000 YYXZ=             -0.0000 ZZXY=             -0.0000
 N-N= 3.118594861649D+01 E-N=-3.311451017783D+02  KE= 1.138055768913D+02
 Symmetry A1   KE= 1.034583837485D+02
 Symmetry A2   KE= 4.843806136957D-35
 Symmetry B1   KE= 3.616765225190D+00
 Symmetry B2   KE= 6.730427917681D+00
 No NMR shielding tensors so no spin-rotation constants.
 Leave Link  601 at Wed Jun 16 17:00:31 2021, MaxMem=   134217728 cpu:               0.1 elap:               0.1
 (Enter /APL/ISV/x86_64/gaussian/16/C.01/g16/l701.exe)
 ... and contract with generalized density number  0.
 Compute integral first derivatives.
 Leave Link  701 at Wed Jun 16 17:00:32 2021, MaxMem=   134217728 cpu:               0.1 elap:               0.1
 (Enter /APL/ISV/x86_64/gaussian/16/C.01/g16/l702.exe)
 L702 exits ... SP integral derivatives will be done elsewhere.
 Leave Link  702 at Wed Jun 16 17:00:32 2021, MaxMem=   134217728 cpu:               0.0 elap:               0.0
 (Enter /APL/ISV/x86_64/gaussian/16/C.01/g16/l703.exe)
 Integral derivatives from FoFJK, PRISM(SPDF).
 Compute integral first derivatives, UseDBF=F ICtDFT=           0.
 Calling FoFJK, ICntrl=      2127 FMM=F ISym2X=1 I1Cent= 0 IOpClX= 0 NMat=1 NMatS=1 NMatT=0.
 FoFJK:  IHMeth= 1 ICntrl=    2127 DoSepK=F KAlg= 0 I1Cent=           0 FoldK=F
 IRaf=         0 NMat=       1 IRICut=       1 DoRegI=T DoRafI=F ISym2E= 1 IDoP0=0 IntGTp=1.
 FoFCou: FMM=F IPFlag=           0 FMFlag=      100000 FMFlg1=         800
         NFxFlg=           0 DoJE=F BraDBF=F KetDBF=F FulRan=T
         wScrn=  0.000000 ICntrl=      2127 IOpCl=  0 I1Cent=           0 NGrid=           0
         NMat0=    1 NMatS0=      1 NMatT0=    0 NMatD0=    1 NMtDS0=    0 NMtDT0=    0
 Petite list used in FoFCou.
 Leave Link  703 at Wed Jun 16 17:00:32 2021, MaxMem=   134217728 cpu:               0.3 elap:               0.3
 (Enter /APL/ISV/x86_64/gaussian/16/C.01/g16/l716.exe)
 Dipole        = 7.01556280D-18-2.22044605D-16-8.38409741D-01
 ***** Axes restored to original set *****
 -------------------------------------------------------------------
 Center     Atomic                   Forces (Hartrees/Bohr)
 Number     Number              X              Y              Z
 -------------------------------------------------------------------
      1        6          -0.000000000   -0.000000000    0.024839646
      2        8          -0.000000000   -0.000000000   -0.010453035
      3        1          -0.008778225    0.000000000   -0.007193306
      4        1           0.008778225    0.000000000   -0.007193306
 -------------------------------------------------------------------
 Cartesian Forces:  Max     0.024839646 RMS     0.009054813
 Leave Link  716 at Wed Jun 16 17:00:32 2021, MaxMem=   134217728 cpu:               0.0 elap:               0.0
 (Enter /APL/ISV/x86_64/gaussian/16/C.01/g16/l103.exe)

 GradGradGradGradGradGradGradGradGradGradGradGradGradGradGradGradGradGrad
 Berny optimization.
 FormGI is forming the generalized inverse of G from B-inverse, IUseBI=4.
 Internal  Forces:  Max     0.011248931 RMS     0.007259103
 Search for a local minimum.
 Step number   1 out of a maximum of   20
 All quantities printed in internal units (Hartrees-Bohrs-Radians)
 RMS Force = .72591D-02 SwitMx=.10000D-02 MixMth= 1
 Mixed Optimization -- RFO/linear search
 Second derivative matrix not updated -- first step.
 The second derivative matrix:
                          R1        R2        R3        A1        A2
           R1           0.98597
           R2           0.00000   0.33664
           R3           0.00000   0.00000   0.33664
           A1           0.00000   0.00000   0.00000   0.16000
           A2           0.00000   0.00000   0.00000   0.00000   0.16000
           A3           0.00000   0.00000   0.00000   0.00000   0.00000
           D1           0.00000   0.00000   0.00000   0.00000   0.00000
                          A3        D1
           A3           0.16000
           D1           0.00000   0.00230
 ITU=  0
     Eigenvalues ---    0.00230   0.16000   0.16000   0.33664   0.33664
     Eigenvalues ---    0.98597
 RFO step:  Lambda=-9.00993145D-04 EMin= 2.30000000D-03
 Linear search not attempted -- first point.
 Iteration  1 RMS(Cart)=  0.01474339 RMS(Int)=  0.00009745
 Iteration  2 RMS(Cart)=  0.00010098 RMS(Int)=  0.00000001
 Iteration  3 RMS(Cart)=  0.00000001 RMS(Int)=  0.00000000
 ITry= 1 IFail=0 DXMaxC= 2.11D-02 DCOld= 1.00D+10 DXMaxT= 3.00D-01 DXLimC= 3.00D+00 Rises=F
 ClnCor:  largest displacement from symmetrization is 3.47D-11 for atom     1.
 Variable       Old X    -DE/DX   Delta X   Delta X   Delta X     New X
                                 (Linear)    (Quad)   (Total)
    R1        2.29206  -0.01045   0.00000  -0.01059  -0.01059   2.28147
    R2        2.07901   0.01125   0.00000   0.03333   0.03333   2.11233
    R3        2.07901   0.01125   0.00000   0.03333   0.03333   2.11233
    A1        2.12436   0.00104   0.00000   0.00648   0.00648   2.13084
    A2        2.12436   0.00104   0.00000   0.00648   0.00648   2.13084
    A3        2.03447  -0.00208   0.00000  -0.01296  -0.01296   2.02151
    D1        3.14159   0.00000   0.00000   0.00000   0.00000   3.14159
         Item               Value     Threshold  Converged?
 Maximum Force            0.011249     0.000450     NO 
 RMS     Force            0.007259     0.000300     NO 
 Maximum Displacement     0.021117     0.001800     NO 
 RMS     Displacement     0.014718     0.001200     NO 
 Predicted change in Energy=-4.516642D-04
 Lowest energy point so far.  Saving SCF results.
 GradGradGradGradGradGradGradGradGradGradGradGradGradGradGradGradGradGrad

 Leave Link  103 at Wed Jun 16 17:00:32 2021, MaxMem=   134217728 cpu:               0.0 elap:               0.0
 (Enter /APL/ISV/x86_64/gaussian/16/C.01/g16/l202.exe)
                          Input orientation:                          
 ---------------------------------------------------------------------
 Center     Atomic      Atomic             Coordinates (Angstroms)
 Number     Number       Type             X           Y           Z
 ---------------------------------------------------------------------
      1          6           0       -0.000000    0.000000   -0.523493
      2          8           0        0.000000   -0.000000    0.683808
      3          1           0       -0.947035    0.000000   -1.117290
      4          1           0        0.947035   -0.000000   -1.117290
 ---------------------------------------------------------------------
                    Distance matrix (angstroms):
                    1          2          3          4
     1  C    0.000000
     2  O    1.207301   0.000000
     3  H    1.117798   2.034904   0.000000
     4  H    1.117798   2.034904   1.894070   0.000000
 Stoichiometry    CH2O
 Framework group  C2V[C2(CO),SGV(H2)]
 Deg. of freedom     3
 Full point group                 C2V     NOp   4
 RotChk:  IX=0 Diff= 1.77D-15
 Largest Abelian subgroup         C2V     NOp   4
 Largest concise Abelian subgroup C2      NOp   2
                         Standard orientation:                         
 ---------------------------------------------------------------------
 Center     Atomic      Atomic             Coordinates (Angstroms)
 Number     Number       Type             X           Y           Z
 ---------------------------------------------------------------------
      1          6           0        0.000000    0.000000   -0.529426
      2          8           0        0.000000   -0.000000    0.677875
      3          1           0        0.000000    0.947035   -1.123224
      4          1           0       -0.000000   -0.947035   -1.123224
 ---------------------------------------------------------------------
 Rotational constants (GHZ):         279.5566189          38.6039456          33.9199439
 Leave Link  202 at Wed Jun 16 17:00:32 2021, MaxMem=   134217728 cpu:               0.0 elap:               0.0
 (Enter /APL/ISV/x86_64/gaussian/16/C.01/g16/l301.exe)
 Standard basis: CC-pVDZ (5D, 7F)
 Ernie: Thresh=  0.10000D-02 Tol=  0.10000D-05 Strict=F.
 Ernie:  4 primitive shells out of 54 were deleted.
 There are    20 symmetry adapted cartesian basis functions of A1  symmetry.
 There are     3 symmetry adapted cartesian basis functions of A2  symmetry.
 There are     7 symmetry adapted cartesian basis functions of B1  symmetry.
 There are    10 symmetry adapted cartesian basis functions of B2  symmetry.
 There are    18 symmetry adapted basis functions of A1  symmetry.
 There are     3 symmetry adapted basis functions of A2  symmetry.
 There are     7 symmetry adapted basis functions of B1  symmetry.
 There are    10 symmetry adapted basis functions of B2  symmetry.
    38 basis functions,    80 primitive gaussians,    40 cartesian basis functions
     8 alpha electrons        8 beta electrons
       nuclear repulsion energy        31.1601999222 Hartrees.
 IExCor=  402 DFT=T Ex+Corr=B3LYP ExCW=0 ScaHFX=  0.200000
 ScaDFX=  0.800000  0.720000  1.000000  0.810000 ScalE2=  1.000000  1.000000
 IRadAn=      5 IRanWt=     -1 IRanGd=            0 ICorTp=0 IEmpDi=  4
 NAtoms=    4 NActive=    4 NUniq=    3 SFac= 1.78D+00 NAtFMM=   60 NAOKFM=F Big=F
 Integral buffers will be    131072 words long.
 Raffenetti 2 integral format.
 Two-electron integral symmetry is turned on.
 Leave Link  301 at Wed Jun 16 17:00:32 2021, MaxMem=   134217728 cpu:               0.1 elap:               0.1
 (Enter /APL/ISV/x86_64/gaussian/16/C.01/g16/l302.exe)
 NPDir=0 NMtPBC=     1 NCelOv=     1 NCel=       1 NClECP=     1 NCelD=      1
         NCelK=      1 NCelE2=     1 NClLst=     1 CellRange=     0.0.
 One-electron integrals computed using PRISM.
 One-electron integral symmetry used in STVInt
 NBasis=    38 RedAO= T EigKep=  1.94D-02  NBF=    18     3     7    10
 NBsUse=    38 1.00D-06 EigRej= -1.00D+00 NBFU=    18     3     7    10
 Precomputing XC quadrature grid using
 IXCGrd= 4 IRadAn=           5 IRanWt=          -1 IRanGd=           0 AccXCQ= 0.00D+00.
 Generated NRdTot=       0 NPtTot=           0 NUsed=           0 NTot=          32
 NSgBfM=    40    40    40    40    40 MxSgAt=     4 MxSgA2=     4.
 Leave Link  302 at Wed Jun 16 17:00:33 2021, MaxMem=   134217728 cpu:               0.1 elap:               0.1
 (Enter /APL/ISV/x86_64/gaussian/16/C.01/g16/l303.exe)
 DipDrv:  MaxL=1.
 Leave Link  303 at Wed Jun 16 17:00:33 2021, MaxMem=   134217728 cpu:               0.0 elap:               0.0
 (Enter /APL/ISV/x86_64/gaussian/16/C.01/g16/l401.exe)
 Initial guess from the checkpoint file:  "h2co-b3lyp-dz.chk"
 B after Tr=    -0.000000    0.000000    0.000000
         Rot=    1.000000    0.000000    0.000000   -0.000000 Ang=   0.00 deg.
 Guess basis will be translated and rotated to current coordinates.
 JPrj=2 DoOrth=T DoCkMO=T.
 Initial guess orbital symmetries:
       Occupied  (A1) (A1) (A1) (A1) (B2) (A1) (B1) (B2)
       Virtual   (B1) (A1) (B2) (A1) (B1) (A1) (B2) (B2) (A1) (A1)
                 (A1) (A2) (B1) (B2) (B1) (A1) (B2) (A1) (B2) (B1)
                 (A1) (A2) (A1) (B2) (A1) (A2) (A1) (B1) (B2) (A1)
 The electronic state of the initial guess is 1-A1.
 Generating alternative initial guess.
 ExpMin= 1.22D-01 ExpMax= 1.17D+04 ExpMxC= 4.01D+02 IAcc=3 IRadAn=         5 AccDes= 0.00D+00
 Harris functional with IExCor=  402 and IRadAn=       5 diagonalized for initial guess.
 HarFok:  IExCor=  402 AccDes= 0.00D+00 IRadAn=         5 IDoV= 1 UseB2=F ITyADJ=14
 ICtDFT=  3500011 ScaDFX=  1.000000  1.000000  1.000000  1.000000
 FoFCou: FMM=F IPFlag=           0 FMFlag=      100000 FMFlg1=           0
         NFxFlg=           0 DoJE=T BraDBF=F KetDBF=T FulRan=T
         wScrn=  0.000000 ICntrl=       500 IOpCl=  0 I1Cent=   200000004 NGrid=           0
         NMat0=    1 NMatS0=      1 NMatT0=    0 NMatD0=    1 NMtDS0=    0 NMtDT0=    0
 Petite list used in FoFCou.
 Harris En= -114.513265476544    
 Leave Link  401 at Wed Jun 16 17:00:33 2021, MaxMem=   134217728 cpu:               0.2 elap:               0.2
 (Enter /APL/ISV/x86_64/gaussian/16/C.01/g16/l502.exe)
 Keep R1 ints in memory in symmetry-blocked form, NReq=1142656.
 FoFCou: FMM=F IPFlag=           0 FMFlag=           0 FMFlg1=           0
         NFxFlg=           0 DoJE=F BraDBF=F KetDBF=F FulRan=T
         wScrn=  0.000000 ICntrl=       600 IOpCl=  0 I1Cent=           0 NGrid=           0
         NMat0=    1 NMatS0=    741 NMatT0=    0 NMatD0=    1 NMtDS0=    0 NMtDT0=    0
 Petite list used in FoFCou.
 Closed shell SCF:
 Using DIIS extrapolation, IDIIS=  1040.
 NGot=   134217728 LenX=   134136439 LenY=   134134398
 Requested convergence on RMS density matrix=1.00D-08 within 128 cycles.
 Requested convergence on MAX density matrix=1.00D-06.
 Requested convergence on             energy=1.00D-06.
 No special actions if energy rises.
 Integral accuracy reduced to 1.0D-05 until final iterations.

 Cycle   1  Pass 0  IDiag  1:
 E= -114.507469323081    
 DIIS: error= 1.35D-03 at cycle   1 NSaved=   1.
 NSaved= 1 IEnMin= 1 EnMin= -114.507469323081     IErMin= 1 ErrMin= 1.35D-03
 ErrMax= 1.35D-03  0.00D+00 EMaxC= 1.00D-01 BMatC= 8.94D-05 BMatP= 8.94D-05
 IDIUse=3 WtCom= 9.87D-01 WtEn= 1.35D-02
 Coeff-Com:  0.100D+01
 Coeff-En:   0.100D+01
 Coeff:      0.100D+01
 Gap=     0.223 Goal=   None    Shift=    0.000
 GapD=    0.223 DampG=1.000 DampE=1.000 DampFc=1.0000 IDamp=-1.
 RMSDP=4.27D-04 MaxDP=3.43D-03              OVMax= 5.75D-03

 Cycle   2  Pass 0  IDiag  1:
 E= -114.507565291929     Delta-E=       -0.000095968848 Rises=F Damp=F
 DIIS: error= 1.20D-03 at cycle   2 NSaved=   2.
 NSaved= 2 IEnMin= 2 EnMin= -114.507565291929     IErMin= 2 ErrMin= 1.20D-03
 ErrMax= 1.20D-03  0.00D+00 EMaxC= 1.00D-01 BMatC= 5.41D-05 BMatP= 8.94D-05
 IDIUse=3 WtCom= 9.88D-01 WtEn= 1.20D-02
 Coeff-Com:  0.408D+00 0.592D+00
 Coeff-En:   0.000D+00 0.100D+01
 Coeff:      0.403D+00 0.597D+00
 Gap=     0.221 Goal=   None    Shift=    0.000
 RMSDP=2.19D-04 MaxDP=3.22D-03 DE=-9.60D-05 OVMax= 5.71D-03

 Cycle   3  Pass 0  IDiag  1:
 E= -114.507571200864     Delta-E=       -0.000005908935 Rises=F Damp=F
 DIIS: error= 1.14D-03 at cycle   3 NSaved=   3.
 NSaved= 3 IEnMin= 3 EnMin= -114.507571200864     IErMin= 3 ErrMin= 1.14D-03
 ErrMax= 1.14D-03  0.00D+00 EMaxC= 1.00D-01 BMatC= 4.65D-05 BMatP= 5.41D-05
 IDIUse=3 WtCom= 9.89D-01 WtEn= 1.14D-02
 Coeff-Com:  0.539D-02 0.480D+00 0.515D+00
 Coeff-En:   0.000D+00 0.472D+00 0.528D+00
 Coeff:      0.533D-02 0.479D+00 0.515D+00
 Gap=     0.222 Goal=   None    Shift=    0.000
 RMSDP=1.16D-04 MaxDP=1.74D-03 DE=-5.91D-06 OVMax= 3.01D-03

 Cycle   4  Pass 0  IDiag  1:
 E= -114.507607681818     Delta-E=       -0.000036480954 Rises=F Damp=F
 DIIS: error= 4.34D-05 at cycle   4 NSaved=   4.
 NSaved= 4 IEnMin= 4 EnMin= -114.507607681818     IErMin= 4 ErrMin= 4.34D-05
 ErrMax= 4.34D-05  0.00D+00 EMaxC= 1.00D-01 BMatC= 9.12D-08 BMatP= 4.65D-05
 IDIUse=1 WtCom= 1.00D+00 WtEn= 0.00D+00
 Coeff-Com: -0.602D-02 0.778D-01 0.110D+00 0.819D+00
 Coeff:     -0.602D-02 0.778D-01 0.110D+00 0.819D+00
 Gap=     0.222 Goal=   None    Shift=    0.000
 RMSDP=9.37D-06 MaxDP=7.85D-05 DE=-3.65D-05 OVMax= 1.38D-04

 Initial convergence to 1.0D-05 achieved.  Increase integral accuracy.
 Cycle   5  Pass 1  IDiag  1:
 E= -114.507607292517     Delta-E=        0.000000389301 Rises=F Damp=F
 DIIS: error= 1.86D-05 at cycle   1 NSaved=   1.
 NSaved= 1 IEnMin= 1 EnMin= -114.507607292517     IErMin= 1 ErrMin= 1.86D-05
 ErrMax= 1.86D-05  0.00D+00 EMaxC= 1.00D-01 BMatC= 9.94D-09 BMatP= 9.94D-09
 IDIUse=1 WtCom= 1.00D+00 WtEn= 0.00D+00
 Coeff-Com:  0.100D+01
 Coeff:      0.100D+01
 Gap=     0.222 Goal=   None    Shift=    0.000
 RMSDP=9.37D-06 MaxDP=7.85D-05 DE= 3.89D-07 OVMax= 8.96D-05

 Cycle   6  Pass 1  IDiag  1:
 E= -114.507607281991     Delta-E=        0.000000010526 Rises=F Damp=F
 DIIS: error= 2.56D-05 at cycle   2 NSaved=   2.
 NSaved= 2 IEnMin= 1 EnMin= -114.507607292517     IErMin= 1 ErrMin= 1.86D-05
 ErrMax= 2.56D-05  0.00D+00 EMaxC= 1.00D-01 BMatC= 2.31D-08 BMatP= 9.94D-09
 IDIUse=1 WtCom= 1.00D+00 WtEn= 0.00D+00
 Coeff-Com:  0.610D+00 0.390D+00
 Coeff:      0.610D+00 0.390D+00
 Gap=     0.222 Goal=   None    Shift=    0.000
 RMSDP=2.78D-06 MaxDP=3.98D-05 DE= 1.05D-08 OVMax= 7.68D-05

 Cycle   7  Pass 1  IDiag  1:
 E= -114.507607300860     Delta-E=       -0.000000018869 Rises=F Damp=F
 DIIS: error= 7.28D-06 at cycle   3 NSaved=   3.
 NSaved= 3 IEnMin= 3 EnMin= -114.507607300860     IErMin= 3 ErrMin= 7.28D-06
 ErrMax= 7.28D-06  0.00D+00 EMaxC= 1.00D-01 BMatC= 1.86D-09 BMatP= 9.94D-09
 IDIUse=1 WtCom= 1.00D+00 WtEn= 0.00D+00
 Coeff-Com:  0.317D+00 0.257D+00 0.426D+00
 Coeff:      0.317D+00 0.257D+00 0.426D+00
 Gap=     0.222 Goal=   None    Shift=    0.000
 RMSDP=8.96D-07 MaxDP=9.80D-06 DE=-1.89D-08 OVMax= 1.46D-05

 Cycle   8  Pass 1  IDiag  1:
 E= -114.507607302305     Delta-E=       -0.000000001445 Rises=F Damp=F
 DIIS: error= 2.96D-07 at cycle   4 NSaved=   4.
 NSaved= 4 IEnMin= 4 EnMin= -114.507607302305     IErMin= 4 ErrMin= 2.96D-07
 ErrMax= 2.96D-07  0.00D+00 EMaxC= 1.00D-01 BMatC= 3.34D-12 BMatP= 1.86D-09
 IDIUse=1 WtCom= 1.00D+00 WtEn= 0.00D+00
 Coeff-Com:  0.143D-01 0.230D-01 0.394D-01 0.923D+00
 Coeff:      0.143D-01 0.230D-01 0.394D-01 0.923D+00
 Gap=     0.222 Goal=   None    Shift=    0.000
 RMSDP=4.41D-08 MaxDP=3.69D-07 DE=-1.44D-09 OVMax= 6.00D-07

 Cycle   9  Pass 1  IDiag  1:
 E= -114.507607302308     Delta-E=       -0.000000000003 Rises=F Damp=F
 DIIS: error= 8.57D-08 at cycle   5 NSaved=   5.
 NSaved= 5 IEnMin= 5 EnMin= -114.507607302308     IErMin= 5 ErrMin= 8.57D-08
 ErrMax= 8.57D-08  0.00D+00 EMaxC= 1.00D-01 BMatC= 3.82D-13 BMatP= 3.34D-12
 IDIUse=1 WtCom= 1.00D+00 WtEn= 0.00D+00
 Coeff-Com: -0.133D-01-0.656D-02-0.184D-01 0.124D+00 0.914D+00
 Coeff:     -0.133D-01-0.656D-02-0.184D-01 0.124D+00 0.914D+00
 Gap=     0.222 Goal=   None    Shift=    0.000
 RMSDP=1.58D-08 MaxDP=1.31D-07 DE=-3.24D-12 OVMax= 1.94D-07

 Cycle  10  Pass 1  IDiag  1:
 E= -114.507607302308     Delta-E=        0.000000000000 Rises=F Damp=F
 DIIS: error= 4.83D-09 at cycle   6 NSaved=   6.
 NSaved= 6 IEnMin= 5 EnMin= -114.507607302308     IErMin= 6 ErrMin= 4.83D-09
 ErrMax= 4.83D-09  0.00D+00 EMaxC= 1.00D-01 BMatC= 9.98D-16 BMatP= 3.82D-13
 IDIUse=1 WtCom= 1.00D+00 WtEn= 0.00D+00
 Coeff-Com: -0.279D-03-0.117D-03-0.988D-03-0.133D-03 0.176D-01 0.984D+00
 Coeff:     -0.279D-03-0.117D-03-0.988D-03-0.133D-03 0.176D-01 0.984D+00
 Gap=     0.222 Goal=   None    Shift=    0.000
 RMSDP=9.21D-10 MaxDP=8.88D-09 DE= 2.84D-14 OVMax= 1.01D-08

 SCF Done:  E(RB3LYP) =  -114.507607302     A.U. after   10 cycles
            NFock= 10  Conv=0.92D-09     -V/T= 2.0064
 KE= 1.137784975075D+02 PE=-3.310603295752D+02 EE= 7.161402484318D+01
 Leave Link  502 at Wed Jun 16 17:00:33 2021, MaxMem=   134217728 cpu:               0.6 elap:               0.6
 (Enter /APL/ISV/x86_64/gaussian/16/C.01/g16/l701.exe)
 ... and contract with generalized density number  0.
 Compute integral first derivatives.
 Leave Link  701 at Wed Jun 16 17:00:34 2021, MaxMem=   134217728 cpu:               0.1 elap:               0.1
 (Enter /APL/ISV/x86_64/gaussian/16/C.01/g16/l702.exe)
 L702 exits ... SP integral derivatives will be done elsewhere.
 Leave Link  702 at Wed Jun 16 17:00:34 2021, MaxMem=   134217728 cpu:               0.0 elap:               0.0
 (Enter /APL/ISV/x86_64/gaussian/16/C.01/g16/l703.exe)
 Integral derivatives from FoFJK, PRISM(SPDF).
 Compute integral first derivatives, UseDBF=F ICtDFT=           0.
 Calling FoFJK, ICntrl=      2127 FMM=F ISym2X=1 I1Cent= 0 IOpClX= 0 NMat=1 NMatS=1 NMatT=0.
 FoFJK:  IHMeth= 1 ICntrl=    2127 DoSepK=F KAlg= 0 I1Cent=           0 FoldK=F
 IRaf=         0 NMat=       1 IRICut=       1 DoRegI=T DoRafI=F ISym2E= 1 IDoP0=0 IntGTp=1.
 FoFCou: FMM=F IPFlag=           0 FMFlag=      100000 FMFlg1=         800
         NFxFlg=           0 DoJE=F BraDBF=F KetDBF=F FulRan=T
         wScrn=  0.000000 ICntrl=      2127 IOpCl=  0 I1Cent=           0 NGrid=           0
         NMat0=    1 NMatS0=      1 NMatT0=    0 NMatD0=    1 NMtDS0=    0 NMtDT0=    0
 Petite list used in FoFCou.
 Leave Link  703 at Wed Jun 16 17:00:34 2021, MaxMem=   134217728 cpu:               0.3 elap:               0.3
 (Enter /APL/ISV/x86_64/gaussian/16/C.01/g16/l716.exe)
 Dipole        = 6.64512587D-18 0.00000000D+00-8.20675926D-01
 ***** Axes restored to original set *****
 -------------------------------------------------------------------
 Center     Atomic                   Forces (Hartrees/Bohr)
 Number     Number              X              Y              Z
 -------------------------------------------------------------------
      1        6           0.000000000   -0.000000000    0.007245254
      2        8          -0.000000000   -0.000000000   -0.004480166
      3        1          -0.000331581    0.000000000   -0.001382544
      4        1           0.000331581    0.000000000   -0.001382544
 -------------------------------------------------------------------
 Cartesian Forces:  Max     0.007245254 RMS     0.002526664
 Leave Link  716 at Wed Jun 16 17:00:34 2021, MaxMem=   134217728 cpu:               0.0 elap:               0.0
 (Enter /APL/ISV/x86_64/gaussian/16/C.01/g16/l103.exe)

 GradGradGradGradGradGradGradGradGradGradGradGradGradGradGradGradGradGrad
 Berny optimization.
 Using GEDIIS/GDIIS optimizer.
 FormGI is forming the generalized inverse of G from B-inverse, IUseBI=4.
 Internal  Forces:  Max     0.004480166 RMS     0.001892841
 Search for a local minimum.
 Step number   2 out of a maximum of   20
 All quantities printed in internal units (Hartrees-Bohrs-Radians)
 RMS Force = .18928D-02 SwitMx=.10000D-02 MixMth= 1
 Mixed Optimization -- RFO/linear search
 Update second derivatives using D2CorX and points    1    2
 DE= -5.16D-04 DEPred=-4.52D-04 R= 1.14D+00
 TightC=F SS=  1.41D+00  RLast= 5.08D-02 DXNew= 5.0454D-01 1.5254D-01
 Trust test= 1.14D+00 RLast= 5.08D-02 DXMaxT set to 3.00D-01
 The second derivative matrix:
                          R1        R2        R3        A1        A2
           R1           0.91163
           R2           0.04980   0.33463
           R3           0.04980  -0.00201   0.33463
           A1           0.00936  -0.00833  -0.00833   0.15896
           A2           0.00936  -0.00833  -0.00833  -0.00104   0.15896
           A3          -0.01871   0.01666   0.01666   0.00208   0.00208
           D1          -0.00000   0.00000   0.00000   0.00000   0.00000
                          A3        D1
           A3           0.15583
           D1          -0.00000   0.00230
 ITU=  1  0
 Use linear search instead of GDIIS.
     Eigenvalues ---    0.00230   0.14769   0.16000   0.32975   0.33664
     Eigenvalues ---    0.92056
 RFO step:  Lambda=-3.21880124D-05 EMin= 2.30000000D-03
 Quartic linear search produced a step of  0.19879.
 Iteration  1 RMS(Cart)=  0.00415910 RMS(Int)=  0.00002168
 Iteration  2 RMS(Cart)=  0.00002328 RMS(Int)=  0.00000000
 Iteration  3 RMS(Cart)=  0.00000000 RMS(Int)=  0.00000000
 ITry= 1 IFail=0 DXMaxC= 7.83D-03 DCOld= 1.00D+10 DXMaxT= 3.00D-01 DXLimC= 3.00D+00 Rises=F
 ClnCor:  largest displacement from symmetrization is 6.22D-11 for atom     1.
 Variable       Old X    -DE/DX   Delta X   Delta X   Delta X     New X
                                 (Linear)    (Quad)   (Total)
    R1        2.28147  -0.00448  -0.00211  -0.00375  -0.00585   2.27561
    R2        2.11233   0.00102   0.00662  -0.00153   0.00510   2.11743
    R3        2.11233   0.00102   0.00662  -0.00153   0.00510   2.11743
    A1        2.13084   0.00070   0.00129   0.00432   0.00560   2.13644
    A2        2.13084   0.00070   0.00129   0.00432   0.00560   2.13644
    A3        2.02151  -0.00140  -0.00258  -0.00863  -0.01121   2.01030
    D1        3.14159   0.00000   0.00000   0.00000   0.00000   3.14159
         Item               Value     Threshold  Converged?
 Maximum Force            0.004480     0.000450     NO 
 RMS     Force            0.001893     0.000300     NO 
 Maximum Displacement     0.007835     0.001800     NO 
 RMS     Displacement     0.004167     0.001200     NO 
 Predicted change in Energy=-2.906069D-05
 Lowest energy point so far.  Saving SCF results.
 GradGradGradGradGradGradGradGradGradGradGradGradGradGradGradGradGradGrad

 Leave Link  103 at Wed Jun 16 17:00:34 2021, MaxMem=   134217728 cpu:               0.0 elap:               0.0
 (Enter /APL/ISV/x86_64/gaussian/16/C.01/g16/l202.exe)
                          Input orientation:                          
 ---------------------------------------------------------------------
 Center     Atomic      Atomic             Coordinates (Angstroms)
 Number     Number       Type             X           Y           Z
 ---------------------------------------------------------------------
      1          6           0        0.000000    0.000000   -0.519347
      2          8           0       -0.000000   -0.000000    0.684856
      3          1           0       -0.945971    0.000000   -1.119887
      4          1           0        0.945971   -0.000000   -1.119887
 ---------------------------------------------------------------------
                    Distance matrix (angstroms):
                    1          2          3          4
     1  C    0.000000
     2  O    1.204203   0.000000
     3  H    1.120496   2.037636   0.000000
     4  H    1.120496   2.037636   1.891942   0.000000
 Stoichiometry    CH2O
 Framework group  C2V[C2(CO),SGV(H2)]
 Deg. of freedom     3
 Full point group                 C2V     NOp   4
 RotChk:  IX=0 Diff= 1.80D-15
 Largest Abelian subgroup         C2V     NOp   4
 Largest concise Abelian subgroup C2      NOp   2
                         Standard orientation:                         
 ---------------------------------------------------------------------
 Center     Atomic      Atomic             Coordinates (Angstroms)
 Number     Number       Type             X           Y           Z
 ---------------------------------------------------------------------
      1          6           0       -0.000000    0.000000   -0.527034
      2          8           0        0.000000    0.000000    0.677169
      3          1           0       -0.000000    0.945971   -1.127575
      4          1           0       -0.000000   -0.945971   -1.127575
 ---------------------------------------------------------------------
 Rotational constants (GHZ):         280.1859370          38.6842346          33.9911961
 Leave Link  202 at Wed Jun 16 17:00:34 2021, MaxMem=   134217728 cpu:               0.0 elap:               0.0
 (Enter /APL/ISV/x86_64/gaussian/16/C.01/g16/l301.exe)
 Standard basis: CC-pVDZ (5D, 7F)
 Ernie: Thresh=  0.10000D-02 Tol=  0.10000D-05 Strict=F.
 Ernie:  4 primitive shells out of 54 were deleted.
 There are    20 symmetry adapted cartesian basis functions of A1  symmetry.
 There are     3 symmetry adapted cartesian basis functions of A2  symmetry.
 There are     7 symmetry adapted cartesian basis functions of B1  symmetry.
 There are    10 symmetry adapted cartesian basis functions of B2  symmetry.
 There are    18 symmetry adapted basis functions of A1  symmetry.
 There are     3 symmetry adapted basis functions of A2  symmetry.
 There are     7 symmetry adapted basis functions of B1  symmetry.
 There are    10 symmetry adapted basis functions of B2  symmetry.
    38 basis functions,    80 primitive gaussians,    40 cartesian basis functions
     8 alpha electrons        8 beta electrons
       nuclear repulsion energy        31.1953818336 Hartrees.
 IExCor=  402 DFT=T Ex+Corr=B3LYP ExCW=0 ScaHFX=  0.200000
 ScaDFX=  0.800000  0.720000  1.000000  0.810000 ScalE2=  1.000000  1.000000
 IRadAn=      5 IRanWt=     -1 IRanGd=            0 ICorTp=0 IEmpDi=  4
 NAtoms=    4 NActive=    4 NUniq=    3 SFac= 1.78D+00 NAtFMM=   60 NAOKFM=F Big=F
 Integral buffers will be    131072 words long.
 Raffenetti 2 integral format.
 Two-electron integral symmetry is turned on.
 Leave Link  301 at Wed Jun 16 17:00:34 2021, MaxMem=   134217728 cpu:               0.1 elap:               0.1
 (Enter /APL/ISV/x86_64/gaussian/16/C.01/g16/l302.exe)
 NPDir=0 NMtPBC=     1 NCelOv=     1 NCel=       1 NClECP=     1 NCelD=      1
         NCelK=      1 NCelE2=     1 NClLst=     1 CellRange=     0.0.
 One-electron integrals computed using PRISM.
 One-electron integral symmetry used in STVInt
 NBasis=    38 RedAO= T EigKep=  1.94D-02  NBF=    18     3     7    10
 NBsUse=    38 1.00D-06 EigRej= -1.00D+00 NBFU=    18     3     7    10
 Precomputing XC quadrature grid using
 IXCGrd= 4 IRadAn=           5 IRanWt=          -1 IRanGd=           0 AccXCQ= 0.00D+00.
 Generated NRdTot=       0 NPtTot=           0 NUsed=           0 NTot=          32
 NSgBfM=    40    40    40    40    40 MxSgAt=     4 MxSgA2=     4.
 Leave Link  302 at Wed Jun 16 17:00:34 2021, MaxMem=   134217728 cpu:               0.1 elap:               0.1
 (Enter /APL/ISV/x86_64/gaussian/16/C.01/g16/l303.exe)
 DipDrv:  MaxL=1.
 Leave Link  303 at Wed Jun 16 17:00:34 2021, MaxMem=   134217728 cpu:               0.0 elap:               0.0
 (Enter /APL/ISV/x86_64/gaussian/16/C.01/g16/l401.exe)
 Initial guess from the checkpoint file:  "h2co-b3lyp-dz.chk"
 B after Tr=     0.000000   -0.000000   -0.000000
         Rot=    1.000000    0.000000   -0.000000    0.000000 Ang=   0.00 deg.
 Guess basis will be translated and rotated to current coordinates.
 JPrj=2 DoOrth=T DoCkMO=T.
 Initial guess orbital symmetries:
       Occupied  (A1) (A1) (A1) (A1) (B2) (A1) (B1) (B2)
       Virtual   (B1) (A1) (B2) (A1) (B1) (A1) (B2) (B2) (A1) (A1)
                 (A1) (A2) (B1) (B2) (B1) (A1) (B2) (A1) (B2) (B1)
                 (A1) (A2) (A1) (B2) (A1) (A2) (A1) (B1) (B2) (A1)
 The electronic state of the initial guess is 1-A1.
 Leave Link  401 at Wed Jun 16 17:00:34 2021, MaxMem=   134217728 cpu:               0.1 elap:               0.1
 (Enter /APL/ISV/x86_64/gaussian/16/C.01/g16/l502.exe)
 Keep R1 ints in memory in symmetry-blocked form, NReq=1142656.
 FoFCou: FMM=F IPFlag=           0 FMFlag=           0 FMFlg1=           0
         NFxFlg=           0 DoJE=F BraDBF=F KetDBF=F FulRan=T
         wScrn=  0.000000 ICntrl=       600 IOpCl=  0 I1Cent=           0 NGrid=           0
         NMat0=    1 NMatS0=    741 NMatT0=    0 NMatD0=    1 NMtDS0=    0 NMtDT0=    0
 Petite list used in FoFCou.
 Closed shell SCF:
 Using DIIS extrapolation, IDIIS=  1040.
 NGot=   134217728 LenX=   134136439 LenY=   134134398
 Requested convergence on RMS density matrix=1.00D-08 within 128 cycles.
 Requested convergence on MAX density matrix=1.00D-06.
 Requested convergence on             energy=1.00D-06.
 No special actions if energy rises.

 Cycle   1  Pass 1  IDiag  1:
 E= -114.507625113516    
 DIIS: error= 3.82D-04 at cycle   1 NSaved=   1.
 NSaved= 1 IEnMin= 1 EnMin= -114.507625113516     IErMin= 1 ErrMin= 3.82D-04
 ErrMax= 3.82D-04  0.00D+00 EMaxC= 1.00D-01 BMatC= 9.50D-06 BMatP= 9.50D-06
 IDIUse=3 WtCom= 9.96D-01 WtEn= 3.82D-03
 Coeff-Com:  0.100D+01
 Coeff-En:   0.100D+01
 Coeff:      0.100D+01
 Gap=     0.223 Goal=   None    Shift=    0.000
 RMSDP=1.27D-04 MaxDP=1.18D-03              OVMax= 2.02D-03

 Cycle   2  Pass 1  IDiag  1:
 E= -114.507635256397     Delta-E=       -0.000010142881 Rises=F Damp=F
 DIIS: error= 4.18D-04 at cycle   2 NSaved=   2.
 NSaved= 2 IEnMin= 2 EnMin= -114.507635256397     IErMin= 1 ErrMin= 3.82D-04
 ErrMax= 4.18D-04  0.00D+00 EMaxC= 1.00D-01 BMatC= 5.95D-06 BMatP= 9.50D-06
 IDIUse=3 WtCom= 9.96D-01 WtEn= 4.18D-03
 Coeff-Com:  0.418D+00 0.582D+00
 Coeff-En:   0.000D+00 0.100D+01
 Coeff:      0.416D+00 0.584D+00
 Gap=     0.223 Goal=   None    Shift=    0.000
 RMSDP=7.11D-05 MaxDP=1.03D-03 DE=-1.01D-05 OVMax= 1.71D-03

 Cycle   3  Pass 1  IDiag  1:
 E= -114.507636332254     Delta-E=       -0.000001075857 Rises=F Damp=F
 DIIS: error= 3.39D-04 at cycle   3 NSaved=   3.
 NSaved= 3 IEnMin= 3 EnMin= -114.507636332254     IErMin= 3 ErrMin= 3.39D-04
 ErrMax= 3.39D-04  0.00D+00 EMaxC= 1.00D-01 BMatC= 4.16D-06 BMatP= 5.95D-06
 IDIUse=3 WtCom= 9.97D-01 WtEn= 3.39D-03
 Coeff-Com:  0.169D-01 0.451D+00 0.532D+00
 Coeff-En:   0.000D+00 0.447D+00 0.553D+00
 Coeff:      0.169D-01 0.451D+00 0.532D+00
 Gap=     0.223 Goal=   None    Shift=    0.000
 RMSDP=3.66D-05 MaxDP=5.46D-04 DE=-1.08D-06 OVMax= 9.73D-04

 Cycle   4  Pass 1  IDiag  1:
 E= -114.507639598045     Delta-E=       -0.000003265791 Rises=F Damp=F
 DIIS: error= 4.46D-05 at cycle   4 NSaved=   4.
 NSaved= 4 IEnMin= 4 EnMin= -114.507639598045     IErMin= 4 ErrMin= 4.46D-05
 ErrMax= 4.46D-05  0.00D+00 EMaxC= 1.00D-01 BMatC= 4.83D-08 BMatP= 4.16D-06
 IDIUse=1 WtCom= 1.00D+00 WtEn= 0.00D+00
 Coeff-Com: -0.152D-01 0.107D+00 0.192D+00 0.716D+00
 Coeff:     -0.152D-01 0.107D+00 0.192D+00 0.716D+00
 Gap=     0.223 Goal=   None    Shift=    0.000
 RMSDP=3.99D-06 MaxDP=5.11D-05 DE=-3.27D-06 OVMax= 7.38D-05

 Cycle   5  Pass 1  IDiag  1:
 E= -114.507639636731     Delta-E=       -0.000000038686 Rises=F Damp=F
 DIIS: error= 7.25D-06 at cycle   5 NSaved=   5.
 NSaved= 5 IEnMin= 5 EnMin= -114.507639636731     IErMin= 5 ErrMin= 7.25D-06
 ErrMax= 7.25D-06  0.00D+00 EMaxC= 1.00D-01 BMatC= 2.34D-09 BMatP= 4.83D-08
 IDIUse=1 WtCom= 1.00D+00 WtEn= 0.00D+00
 Coeff-Com: -0.435D-02 0.172D-01 0.520D-01 0.272D+00 0.664D+00
 Coeff:     -0.435D-02 0.172D-01 0.520D-01 0.272D+00 0.664D+00
 Gap=     0.223 Goal=   None    Shift=    0.000
 RMSDP=1.59D-06 MaxDP=1.50D-05 DE=-3.87D-08 OVMax= 2.11D-05

 Cycle   6  Pass 1  IDiag  1:
 E= -114.507639639108     Delta-E=       -0.000000002377 Rises=F Damp=F
 DIIS: error= 1.02D-06 at cycle   6 NSaved=   6.
 NSaved= 6 IEnMin= 6 EnMin= -114.507639639108     IErMin= 6 ErrMin= 1.02D-06
 ErrMax= 1.02D-06  0.00D+00 EMaxC= 1.00D-01 BMatC= 5.14D-11 BMatP= 2.34D-09
 IDIUse=1 WtCom= 1.00D+00 WtEn= 0.00D+00
 Coeff-Com:  0.458D-05-0.355D-02-0.718D-03-0.240D-02 0.895D-01 0.917D+00
 Coeff:      0.458D-05-0.355D-02-0.718D-03-0.240D-02 0.895D-01 0.917D+00
 Gap=     0.223 Goal=   None    Shift=    0.000
 RMSDP=1.64D-07 MaxDP=1.63D-06 DE=-2.38D-09 OVMax= 1.86D-06

 Cycle   7  Pass 1  IDiag  1:
 E= -114.507639639153     Delta-E=       -0.000000000045 Rises=F Damp=F
 DIIS: error= 7.02D-08 at cycle   7 NSaved=   7.
 NSaved= 7 IEnMin= 7 EnMin= -114.507639639153     IErMin= 7 ErrMin= 7.02D-08
 ErrMax= 7.02D-08  0.00D+00 EMaxC= 1.00D-01 BMatC= 1.20D-13 BMatP= 5.14D-11
 IDIUse=1 WtCom= 1.00D+00 WtEn= 0.00D+00
 Coeff-Com:  0.365D-04-0.210D-03-0.523D-03-0.266D-02 0.401D-03 0.544D-02
 Coeff-Com:  0.998D+00
 Coeff:      0.365D-04-0.210D-03-0.523D-03-0.266D-02 0.401D-03 0.544D-02
 Coeff:      0.998D+00
 Gap=     0.223 Goal=   None    Shift=    0.000
 RMSDP=1.23D-08 MaxDP=1.76D-07 DE=-4.52D-11 OVMax= 3.62D-07

 Cycle   8  Pass 1  IDiag  1:
 E= -114.507639639153     Delta-E=       -0.000000000000 Rises=F Damp=F
 DIIS: error= 2.46D-08 at cycle   8 NSaved=   8.
 NSaved= 8 IEnMin= 8 EnMin= -114.507639639153     IErMin= 8 ErrMin= 2.46D-08
 ErrMax= 2.46D-08  0.00D+00 EMaxC= 1.00D-01 BMatC= 2.40D-14 BMatP= 1.20D-13
 IDIUse=1 WtCom= 1.00D+00 WtEn= 0.00D+00
 Coeff-Com:  0.499D-05 0.147D-04-0.234D-04-0.394D-03-0.123D-02-0.157D-01
 Coeff-Com:  0.152D+00 0.865D+00
 Coeff:      0.499D-05 0.147D-04-0.234D-04-0.394D-03-0.123D-02-0.157D-01
 Coeff:      0.152D+00 0.865D+00
 Gap=     0.223 Goal=   None    Shift=    0.000
 RMSDP=3.93D-09 MaxDP=3.54D-08 DE=-4.55D-13 OVMax= 5.42D-08

 SCF Done:  E(RB3LYP) =  -114.507639639     A.U. after    8 cycles
            NFock=  8  Conv=0.39D-08     -V/T= 2.0064
 KE= 1.137823207882D+02 PE=-3.311261785922D+02 EE= 7.164083633117D+01
 Leave Link  502 at Wed Jun 16 17:00:35 2021, MaxMem=   134217728 cpu:               0.6 elap:               0.6
 (Enter /APL/ISV/x86_64/gaussian/16/C.01/g16/l701.exe)
 ... and contract with generalized density number  0.
 Compute integral first derivatives.
 Leave Link  701 at Wed Jun 16 17:00:35 2021, MaxMem=   134217728 cpu:               0.1 elap:               0.1
 (Enter /APL/ISV/x86_64/gaussian/16/C.01/g16/l702.exe)
 L702 exits ... SP integral derivatives will be done elsewhere.
 Leave Link  702 at Wed Jun 16 17:00:35 2021, MaxMem=   134217728 cpu:               0.0 elap:               0.0
 (Enter /APL/ISV/x86_64/gaussian/16/C.01/g16/l703.exe)
 Integral derivatives from FoFJK, PRISM(SPDF).
 Compute integral first derivatives, UseDBF=F ICtDFT=           0.
 Calling FoFJK, ICntrl=      2127 FMM=F ISym2X=1 I1Cent= 0 IOpClX= 0 NMat=1 NMatS=1 NMatT=0.
 FoFJK:  IHMeth= 1 ICntrl=    2127 DoSepK=F KAlg= 0 I1Cent=           0 FoldK=F
 IRaf=         0 NMat=       1 IRICut=       1 DoRegI=T DoRafI=F ISym2E= 1 IDoP0=0 IntGTp=1.
 FoFCou: FMM=F IPFlag=           0 FMFlag=      100000 FMFlg1=         800
         NFxFlg=           0 DoJE=F BraDBF=F KetDBF=F FulRan=T
         wScrn=  0.000000 ICntrl=      2127 IOpCl=  0 I1Cent=           0 NGrid=           0
         NMat0=    1 NMatS0=      1 NMatT0=    0 NMatD0=    1 NMtDS0=    0 NMtDT0=    0
 Petite list used in FoFCou.
 Leave Link  703 at Wed Jun 16 17:00:35 2021, MaxMem=   134217728 cpu:               0.3 elap:               0.3
 (Enter /APL/ISV/x86_64/gaussian/16/C.01/g16/l716.exe)
 Dipole        = 6.79477797D-18-2.22044605D-16-8.14250566D-01
 ***** Axes restored to original set *****
 -------------------------------------------------------------------
 Center     Atomic                   Forces (Hartrees/Bohr)
 Number     Number              X              Y              Z
 -------------------------------------------------------------------
      1        6           0.000000000   -0.000000000    0.000424690
      2        8           0.000000000   -0.000000000   -0.000290839
      3        1           0.000253598    0.000000000   -0.000066925
      4        1          -0.000253598    0.000000000   -0.000066925
 -------------------------------------------------------------------
 Cartesian Forces:  Max     0.000424690 RMS     0.000183151
 Leave Link  716 at Wed Jun 16 17:00:35 2021, MaxMem=   134217728 cpu:               0.0 elap:               0.0
 (Enter /APL/ISV/x86_64/gaussian/16/C.01/g16/l103.exe)

 GradGradGradGradGradGradGradGradGradGradGradGradGradGradGradGradGradGrad
 Berny optimization.
 Using GEDIIS/GDIIS optimizer.
 FormGI is forming the generalized inverse of G from B-inverse, IUseBI=4.
 Internal  Forces:  Max     0.000290839 RMS     0.000192275
 Search for a local minimum.
 Step number   3 out of a maximum of   20
 All quantities printed in internal units (Hartrees-Bohrs-Radians)
 RMS Force = .19228D-03 SwitMx=.10000D-02 MixMth= 2
 Mixed Optimization -- En-DIIS/RFO-DIIS
 Update second derivatives using D2CorX and points    1    2    3
 DE= -3.23D-05 DEPred=-2.91D-05 R= 1.11D+00
 TightC=F SS=  1.41D+00  RLast= 1.66D-02 DXNew= 5.0454D-01 4.9715D-02
 Trust test= 1.11D+00 RLast= 1.66D-02 DXMaxT set to 3.00D-01
 The second derivative matrix:
                          R1        R2        R3        A1        A2
           R1           0.89779
           R2           0.04185   0.34295
           R3           0.04185   0.00630   0.34295
           A1           0.01904  -0.01017  -0.01017   0.15654
           A2           0.01904  -0.01017  -0.01017  -0.00346   0.15654
           A3          -0.03807   0.02035   0.02035   0.00692   0.00692
           D1          -0.00000   0.00000   0.00000   0.00000   0.00000
                          A3        D1
           A3           0.14615
           D1          -0.00000   0.00230
 ITU=  1  1  0
 Use linear search instead of GDIIS.
     Eigenvalues ---    0.00230   0.12940   0.16000   0.33664   0.35040
     Eigenvalues ---    0.90648
 RFO step:  Lambda=-6.75646561D-07 EMin= 2.30000000D-03
 Quartic linear search produced a step of  0.07954.
 Iteration  1 RMS(Cart)=  0.00090814 RMS(Int)=  0.00000057
 Iteration  2 RMS(Cart)=  0.00000050 RMS(Int)=  0.00000000
 ITry= 1 IFail=0 DXMaxC= 1.37D-03 DCOld= 1.00D+10 DXMaxT= 3.00D-01 DXLimC= 3.00D+00 Rises=F
 ClnCor:  largest displacement from symmetrization is 6.40D-11 for atom     1.
 Variable       Old X    -DE/DX   Delta X   Delta X   Delta X     New X
                                 (Linear)    (Quad)   (Total)
    R1        2.27561  -0.00029  -0.00047   0.00004  -0.00042   2.27519
    R2        2.11743  -0.00018   0.00041  -0.00069  -0.00029   2.11714
    R3        2.11743  -0.00018   0.00041  -0.00069  -0.00029   2.11714
    A1        2.13644   0.00014   0.00045   0.00054   0.00099   2.13743
    A2        2.13644   0.00014   0.00045   0.00054   0.00099   2.13743
    A3        2.01030  -0.00027  -0.00089  -0.00108  -0.00198   2.00833
    D1        3.14159   0.00000   0.00000   0.00000   0.00000   3.14159
         Item               Value     Threshold  Converged?
 Maximum Force            0.000291     0.000450     YES
 RMS     Force            0.000192     0.000300     YES
 Maximum Displacement     0.001365     0.001800     YES
 RMS     Displacement     0.000908     0.001200     YES
 Predicted change in Energy=-5.165567D-07
 Optimization completed.
    -- Stationary point found.
                           ----------------------------
                           !   Optimized Parameters   !
                           ! (Angstroms and Degrees)  !
 --------------------------                            --------------------------
 ! Name  Definition              Value          Derivative Info.                !
 --------------------------------------------------------------------------------
 ! R1    R(1,2)                  1.2042         -DE/DX =   -0.0003              !
 ! R2    R(1,3)                  1.1205         -DE/DX =   -0.0002              !
 ! R3    R(1,4)                  1.1205         -DE/DX =   -0.0002              !
 ! A1    A(2,1,3)              122.409          -DE/DX =    0.0001              !
 ! A2    A(2,1,4)              122.409          -DE/DX =    0.0001              !
 ! A3    A(3,1,4)              115.1819         -DE/DX =   -0.0003              !
 ! D1    D(2,1,4,3)            180.0            -DE/DX =    0.0                 !
 --------------------------------------------------------------------------------
 Lowest energy point so far.  Saving SCF results.
 Largest change from initial coordinates is atom    3       0.018 Angstoms.
 GradGradGradGradGradGradGradGradGradGradGradGradGradGradGradGradGradGrad

 Leave Link  103 at Wed Jun 16 17:00:35 2021, MaxMem=   134217728 cpu:               0.0 elap:               0.0
 (Enter /APL/ISV/x86_64/gaussian/16/C.01/g16/l202.exe)
                          Input orientation:                          
 ---------------------------------------------------------------------
 Center     Atomic      Atomic             Coordinates (Angstroms)
 Number     Number       Type             X           Y           Z
 ---------------------------------------------------------------------
      1          6           0       -0.000000    0.000000   -0.519347
      2          8           0        0.000000   -0.000000    0.684856
      3          1           0       -0.945971    0.000000   -1.119887
      4          1           0        0.945971   -0.000000   -1.119887
 ---------------------------------------------------------------------
                    Distance matrix (angstroms):
                    1          2          3          4
     1  C    0.000000
     2  O    1.204203   0.000000
     3  H    1.120496   2.037636   0.000000
     4  H    1.120496   2.037636   1.891942   0.000000
 Stoichiometry    CH2O
 Framework group  C2V[C2(CO),SGV(H2)]
 Deg. of freedom     3
 Full point group                 C2V     NOp   4
 RotChk:  IX=0 Diff= 3.07D-15
 Largest Abelian subgroup         C2V     NOp   4
 Largest concise Abelian subgroup C2      NOp   2
                         Standard orientation:                         
 ---------------------------------------------------------------------
 Center     Atomic      Atomic             Coordinates (Angstroms)
 Number     Number       Type             X           Y           Z
 ---------------------------------------------------------------------
      1          6           0        0.000000   -0.000000   -0.527034
      2          8           0       -0.000000    0.000000    0.677169
      3          1           0       -0.000000    0.945971   -1.127575
      4          1           0       -0.000000   -0.945971   -1.127575
 ---------------------------------------------------------------------
 Rotational constants (GHZ):         280.1859370          38.6842346          33.9911961
 Leave Link  202 at Wed Jun 16 17:00:35 2021, MaxMem=   134217728 cpu:               0.0 elap:               0.0
 (Enter /APL/ISV/x86_64/gaussian/16/C.01/g16/l601.exe)
 Copying SCF densities to generalized density rwf, IOpCl= 0 IROHF=0.

 **********************************************************************

            Population analysis using the SCF Density.

 **********************************************************************

 Orbital symmetries:
       Occupied  (A1) (A1) (A1) (A1) (B2) (A1) (B1) (B2)
       Virtual   (B1) (A1) (B2) (A1) (B1) (A1) (B2) (B2) (A1) (A1)
                 (A1) (A2) (B1) (B2) (B1) (A1) (B2) (A1) (B2) (B1)
                 (A1) (A2) (A1) (B2) (A1) (A2) (A1) (B1) (B2) (A1)
 The electronic state is 1-A1.
 Alpha  occ. eigenvalues --  -19.16015 -10.28984  -1.06342  -0.63279  -0.49192
 Alpha  occ. eigenvalues --   -0.45018  -0.40069  -0.26705
 Alpha virt. eigenvalues --   -0.04414   0.06516   0.13328   0.20822   0.44981
 Alpha virt. eigenvalues --    0.46219   0.53702   0.58745   0.63176   0.75917
 Alpha virt. eigenvalues --    0.87163   0.92586   0.97895   1.05359   1.16496
 Alpha virt. eigenvalues --    1.40613   1.43244   1.53536   1.65345   1.67066
 Alpha virt. eigenvalues --    1.68770   1.72444   2.23438   2.30483   2.39104
 Alpha virt. eigenvalues --    2.67092   2.78924   3.03351   3.32382   3.42043
          Condensed to atoms (all electrons):
               1          2          3          4
     1  C    4.414922   0.707580   0.357636   0.357636
     2  O    0.707580   7.569351  -0.048694  -0.048694
     3  H    0.357636  -0.048694   0.784839  -0.102441
     4  H    0.357636  -0.048694  -0.102441   0.784839
 Mulliken charges:
               1
     1  C    0.162225
     2  O   -0.179543
     3  H    0.008659
     4  H    0.008659
 Sum of Mulliken charges =   0.00000
 Mulliken charges with hydrogens summed into heavy atoms:
               1
     1  C    0.179543
     2  O   -0.179543
 Electronic spatial extent (au):  <R**2>=             60.4750
 Charge=              0.0000 electrons
 Dipole moment (field-independent basis, Debye):
    X=              0.0000    Y=             -0.0000    Z=             -2.0696  Tot=              2.0696
 Quadrupole moment (field-independent basis, Debye-Ang):
   XX=            -11.4125   YY=            -11.5753   ZZ=            -11.9176
   XY=              0.0000   XZ=              0.0000   YZ=             -0.0000
 Traceless Quadrupole moment (field-independent basis, Debye-Ang):
   XX=              0.2226   YY=              0.0599   ZZ=             -0.2825
   XY=              0.0000   XZ=              0.0000   YZ=             -0.0000
 Octapole moment (field-independent basis, Debye-Ang**2):
  XXX=              0.0000  YYY=             -0.0000  ZZZ=              1.5369  XYY=              0.0000
  XXY=             -0.0000  XXZ=              1.0305  XZZ=              0.0000  YZZ=             -0.0000
  YYZ=              0.2786  XYZ=             -0.0000
 Hexadecapole moment (field-independent basis, Debye-Ang**3):
 XXXX=             -9.4036 YYYY=            -18.7978 ZZZZ=            -44.5166 XXXY=             -0.0000
 XXXZ=             -0.0000 YYYX=             -0.0000 YYYZ=              0.0000 ZZZX=             -0.0000
 ZZZY=              0.0000 XXYY=             -4.9246 XXZZ=             -8.9336 YYZZ=            -10.3135
 XXYZ=              0.0000 YYXZ=             -0.0000 ZZXY=             -0.0000
 N-N= 3.119538183364D+01 E-N=-3.311261781675D+02  KE= 1.137823207882D+02
 Symmetry A1   KE= 1.034642800169D+02
 Symmetry A2   KE= 8.229695340068D-35
 Symmetry B1   KE= 3.632828393330D+00
 Symmetry B2   KE= 6.685212377990D+00
 No NMR shielding tensors so no spin-rotation constants.
 Leave Link  601 at Wed Jun 16 17:00:35 2021, MaxMem=   134217728 cpu:               0.1 elap:               0.1
 (Enter /APL/ISV/x86_64/gaussian/16/C.01/g16/l9999.exe)
 Unable to Open any file for archive entry.
 1\1\GINC-LEMON\FOpt\RB3LYP\CC-pVDZ\C1H2O1\YAGI\16-Jun-2021\0\\#p b3lyp
 /cc-pvdz opt freq\\H2CO b3lyp/cc-pvdz (opt/freq)\\0,1\C,0.,0.,-0.51934
 67373\O,0.,0.,0.6848563211\H,-0.9459710891,0.,-1.1198872919\H,0.945971
 0891,0.,-1.1198872919\\Version=ES64L-G16RevC.01\State=1-A1\HF=-114.507
 6396\RMSD=3.927e-09\RMSF=1.832e-04\Dipole=0.,0.,-0.8142506\Quadrupole=
 0.0445129,0.1655291,-0.210042,0.,0.,0.\PG=C02V [C2(C1O1),SGV(H2)]\\@
 The archive entry for this job was punched.


 IF MATHEMATICALLY YOU END UP WITH THE INCORRECT ANSWER,
 TRY MULTIPLYING BY THE PAGE NUMBER.
 Leave Link 9999 at Wed Jun 16 17:00:36 2021, MaxMem=   134217728 cpu:               0.0 elap:               0.0
 Job cpu time:       0 days  0 hours  0 minutes  5.5 seconds.
 Elapsed time:       0 days  0 hours  0 minutes  5.2 seconds.
 File lengths (MBytes):  RWF=      6 Int=      0 D2E=      0 Chk=      1 Scr=      1
 Normal termination of Gaussian 16 at Wed Jun 16 17:00:36 2021.
 (Enter /APL/ISV/x86_64/gaussian/16/C.01/g16/l1.exe)
 Link1:  Proceeding to internal job step number  2.
 -------------------------------------------------------------------
 #P Geom=AllCheck Guess=TCheck SCRF=Check GenChk RB3LYP/CC-pVDZ Freq
 -------------------------------------------------------------------
 1/10=4,29=7,30=1,38=1,40=1/1,3;
 2/12=2,40=1/2;
 3/5=16,11=2,14=-4,25=1,30=1,70=2,71=2,74=-5,116=1,140=1/1,2,3;
 4/5=101/1;
 5/5=2,38=6,98=1/2;
 8/6=4,10=90,11=11/1;
 11/6=1,8=1,9=11,15=111,16=1/1,2,10;
 10/6=1/2;
 6/7=2,8=2,9=2,10=2,28=1/1;
 7/8=1,10=1,25=1/1,2,3,16;
 1/10=4,30=1/3;
 99//99;
 Leave Link    1 at Wed Jun 16 17:00:36 2021, MaxMem=   134217728 cpu:               0.0 elap:               0.0
 (Enter /APL/ISV/x86_64/gaussian/16/C.01/g16/l101.exe)
 Structure from the checkpoint file:  "h2co-b3lyp-dz.chk"
 -----------------------------
 H2CO b3lyp/cc-pvdz (opt/freq)
 -----------------------------
 Charge =  0 Multiplicity = 1
 Redundant internal coordinates found in file.  (old form).
 C,0,0.,0.,-0.5193467373
 O,0,0.,0.,0.6848563211
 H,0,-0.9459710891,0.,-1.1198872919
 H,0,0.9459710891,0.,-1.1198872919
 Recover connectivity data from disk.
 ITRead=  0  0  0  0
 MicOpt= -1 -1 -1 -1
 NAtoms=      4 NQM=        4 NQMF=       0 NMMI=      0 NMMIF=      0
                NMic=       0 NMicF=      0.
                    Isotopes and Nuclear Properties:
 (Nuclear quadrupole moments (NQMom) in fm**2, nuclear magnetic moments (NMagM)
  in nuclear magnetons)

  Atom         1           2           3           4
 IAtWgt=          12          16           1           1
 AtmWgt=  12.0000000  15.9949146   1.0078250   1.0078250
 NucSpn=           0           0           1           1
 AtZEff=   3.6000000   5.6000000   1.0000000   1.0000000
 NQMom=    0.0000000   0.0000000   0.0000000   0.0000000
 NMagM=    0.0000000   0.0000000   2.7928460   2.7928460
 AtZNuc=   6.0000000   8.0000000   1.0000000   1.0000000
 Leave Link  101 at Wed Jun 16 17:00:36 2021, MaxMem=   134217728 cpu:               0.2 elap:               0.2
 (Enter /APL/ISV/x86_64/gaussian/16/C.01/g16/l103.exe)

 GradGradGradGradGradGradGradGradGradGradGradGradGradGradGradGradGradGrad
 Berny optimization.
 Initialization pass.
                           ----------------------------
                           !    Initial Parameters    !
                           ! (Angstroms and Degrees)  !
 --------------------------                            --------------------------
 ! Name  Definition              Value          Derivative Info.                !
 --------------------------------------------------------------------------------
 ! R1    R(1,2)                  1.2042         calculate D2E/DX2 analytically  !
 ! R2    R(1,3)                  1.1205         calculate D2E/DX2 analytically  !
 ! R3    R(1,4)                  1.1205         calculate D2E/DX2 analytically  !
 ! A1    A(2,1,3)              122.409          calculate D2E/DX2 analytically  !
 ! A2    A(2,1,4)              122.409          calculate D2E/DX2 analytically  !
 ! A3    A(3,1,4)              115.1819         calculate D2E/DX2 analytically  !
 ! D1    D(2,1,4,3)            180.0            calculate D2E/DX2 analytically  !
 --------------------------------------------------------------------------------
 Trust Radius=3.00D-01 FncErr=1.00D-07 GrdErr=1.00D-07 EigMax=2.50D+02 EigMin=1.00D-04
 Number of steps in this run=      2 maximum allowed number of steps=      2.
 GradGradGradGradGradGradGradGradGradGradGradGradGradGradGradGradGradGrad

 Leave Link  103 at Wed Jun 16 17:00:36 2021, MaxMem=   134217728 cpu:               0.0 elap:               0.0
 (Enter /APL/ISV/x86_64/gaussian/16/C.01/g16/l202.exe)
                          Input orientation:                          
 ---------------------------------------------------------------------
 Center     Atomic      Atomic             Coordinates (Angstroms)
 Number     Number       Type             X           Y           Z
 ---------------------------------------------------------------------
      1          6           0        0.000000    0.000000   -0.519347
      2          8           0       -0.000000   -0.000000    0.684856
      3          1           0       -0.945971    0.000000   -1.119887
      4          1           0        0.945971   -0.000000   -1.119887
 ---------------------------------------------------------------------
                    Distance matrix (angstroms):
                    1          2          3          4
     1  C    0.000000
     2  O    1.204203   0.000000
     3  H    1.120496   2.037636   0.000000
     4  H    1.120496   2.037636   1.891942   0.000000
 Stoichiometry    CH2O
 Framework group  C2V[C2(CO),SGV(H2)]
 Deg. of freedom     3
 Full point group                 C2V     NOp   4
 RotChk:  IX=0 Diff= 1.31D-15
 Largest Abelian subgroup         C2V     NOp   4
 Largest concise Abelian subgroup C2      NOp   2
                         Standard orientation:                         
 ---------------------------------------------------------------------
 Center     Atomic      Atomic             Coordinates (Angstroms)
 Number     Number       Type             X           Y           Z
 ---------------------------------------------------------------------
      1          6           0       -0.000000    0.000000   -0.527034
      2          8           0        0.000000   -0.000000    0.677169
      3          1           0       -0.000000    0.945971   -1.127575
      4          1           0       -0.000000   -0.945971   -1.127575
 ---------------------------------------------------------------------
 Rotational constants (GHZ):         280.1859370          38.6842346          33.9911961
 Leave Link  202 at Wed Jun 16 17:00:36 2021, MaxMem=   134217728 cpu:               0.0 elap:               0.0
 (Enter /APL/ISV/x86_64/gaussian/16/C.01/g16/l301.exe)
 Standard basis: CC-pVDZ (5D, 7F)
 Ernie: Thresh=  0.10000D-02 Tol=  0.10000D-05 Strict=F.
 Ernie:  4 primitive shells out of 54 were deleted.
 There are    20 symmetry adapted cartesian basis functions of A1  symmetry.
 There are     3 symmetry adapted cartesian basis functions of A2  symmetry.
 There are     7 symmetry adapted cartesian basis functions of B1  symmetry.
 There are    10 symmetry adapted cartesian basis functions of B2  symmetry.
 There are    18 symmetry adapted basis functions of A1  symmetry.
 There are     3 symmetry adapted basis functions of A2  symmetry.
 There are     7 symmetry adapted basis functions of B1  symmetry.
 There are    10 symmetry adapted basis functions of B2  symmetry.
    38 basis functions,    80 primitive gaussians,    40 cartesian basis functions
     8 alpha electrons        8 beta electrons
       nuclear repulsion energy        31.1953818336 Hartrees.
[...]
 Polarizability= 7.43865571D+00 6.76731443D-16 1.46344129D+01
                 4.88611275D-16-2.96389580D-11 1.86044670D+01
 Full mass-weighted force constant matrix:
 Low frequencies ---    0.0004    0.0009    0.0014   17.1433   27.1193   61.9654
 Low frequencies --- 1186.7132 1253.8990 1514.9607
 Diagonal vibrational polarizability:
        0.0301106       0.8340651       1.1362789
 Harmonic frequencies (cm**-1), IR intensities (KM/Mole), Raman scattering
 activities (A**4/AMU), depolarization ratios for plane and unpolarized
 incident light, reduced masses (AMU), force constants (mDyne/A),
 and normal coordinates:
                      1                      2                      3
                     B1                     B2                     A1
 Frequencies --   1186.7131              1253.8989              1514.9607
 Red. masses --      1.3734                 1.3481                 1.1008
 Frc consts  --      1.1396                 1.2489                 1.4885
 IR Inten    --      1.5757                15.9731                 5.7813
  Atom  AN      X      Y      Z        X      Y      Z        X      Y      Z
     1   6    -0.18   0.00  -0.00    -0.00  -0.15   0.00    -0.00   0.00   0.00
     2   8     0.04  -0.00   0.00     0.00   0.08  -0.00     0.00  -0.00  -0.08
     3   1     0.70  -0.00  -0.00     0.00   0.25   0.65     0.00   0.35   0.61
     4   1     0.70  -0.00   0.00     0.00   0.25  -0.65     0.00  -0.35   0.61
                      4                      5                      6
                     A1                     A1                     B2
 Frequencies --   1831.5515              2862.5070              2915.7642
 Red. masses --      7.5853                 1.0452                 1.1214
 Frc consts  --     14.9920                 5.0458                 5.6169
 IR Inten    --    108.8360                59.4907               177.1233
  Atom  AN      X      Y      Z        X      Y      Z        X      Y      Z
     1   6     0.00   0.00   0.60    -0.00   0.00   0.06     0.00  -0.10   0.00
     2   8    -0.00  -0.00  -0.42     0.00   0.00   0.00    -0.00   0.00  -0.00
     3   1    -0.00  -0.44  -0.19     0.00   0.61  -0.36    -0.00   0.60  -0.37
     4   1    -0.00   0.44  -0.19     0.00  -0.61  -0.36    -0.00   0.60   0.37

 -------------------
 - Thermochemistry -
 -------------------
 Temperature   298.150 Kelvin.  Pressure   1.00000 Atm.
 Atom     1 has atomic number  6 and mass  12.00000
 Atom     2 has atomic number  8 and mass  15.99491
 Atom     3 has atomic number  1 and mass   1.00783
 Atom     4 has atomic number  1 and mass   1.00783
 Molecular mass:    30.01056 amu.
 Principal axes and moments of inertia in atomic units:
                           1         2         3
     Eigenvalues --     6.44123  46.65314  53.09437
           X            0.00000  -0.00000   1.00000
           Y            0.00000   1.00000   0.00000
           Z            1.00000  -0.00000  -0.00000
 This molecule is an asymmetric top.
 Rotational symmetry number  2.
 Rotational temperatures (Kelvin)     13.44680     1.85655     1.63132
 Rotational constants (GHZ):         280.18594    38.68423    33.99120
 Zero-point vibrational energy      69176.4 (Joules/Mol)
                                   16.53356 (Kcal/Mol)
 Vibrational temperatures:   1707.42  1804.08  2179.69  2635.19  4118.51
          (Kelvin)           4195.13
 
 Zero-point correction=                           0.026348 (Hartree/Particle)
 Thermal correction to Energy=                    0.029217
 Thermal correction to Enthalpy=                  0.030162
 Thermal correction to Gibbs Free Energy=         0.005330
 Sum of electronic and zero-point Energies=           -114.481292
 Sum of electronic and thermal Energies=              -114.478422
 Sum of electronic and thermal Enthalpies=            -114.477478
 Sum of electronic and thermal Free Energies=         -114.502309
 
                     E (Thermal)             CV                S
                      KCal/Mol        Cal/Mol-Kelvin    Cal/Mol-Kelvin
 Total                   18.334              6.442             52.262
 Electronic               0.000              0.000              0.000
 Translational            0.889              2.981             36.130
 Rotational               0.889              2.981             16.041
 Vibrational             16.557              0.480              0.091
                       Q            Log10(Q)             Ln(Q)
 Total Bot       0.353378D-02         -2.451761         -5.645388
 Total V=0       0.464970D+10          9.667425         22.260069
 Vib (Bot)       0.764908D-12        -12.116391        -27.899021
 Vib (V=0)       0.100646D+01          0.002796          0.006437
 Electronic      0.100000D+01          0.000000          0.000000
 Translational   0.646197D+07          6.810365         15.681445
 Rotational      0.714932D+03          2.854265          6.572187
 
                                                    H2CO b3lyp/cc-pvdz (opt/freq)
                                                             IR Spectrum
 
     2  2                                            1             1          1  1                                                   
     9  8                                            8             5          2  1                                                   
     1  6                                            3             1          5  8                                                   
     6  3                                            2             5          4  7                                                   
 
     X  X                                            X             X          X  X                                                   
     X  X                                            X                        X                                                      
     X  X                                            X                                                                               
     X  X                                            X                                                                               
     X  X                                            X                                                                               
     X  X                                            X                                                                               
     X  X                                            X                                                                               
     X                                               X                                                                               
     X                                               X                                                                               
     X                                               X                                                                               
     X                                               X                                                                               
     X                                               X                                                                               
     X                                                                                                                               
     X                                                                                                                               
     X                                                                                                                               
     X                                                                                                                               
     X                                                                                                                               
     X                                                                                                                               
     X                                                                                                                               
     X                                                                                                                               
 
 ***** Axes restored to original set *****
 -------------------------------------------------------------------
 Center     Atomic                   Forces (Hartrees/Bohr)
 Number     Number              X              Y              Z
 -------------------------------------------------------------------
      1        6          -0.000000000   -0.000000000    0.000424700
      2        8          -0.000000000   -0.000000000   -0.000290845
      3        1           0.000253597    0.000000000   -0.000066927
      4        1          -0.000253597    0.000000000   -0.000066927
 -------------------------------------------------------------------
 Cartesian Forces:  Max     0.000424700 RMS     0.000183153
 Force constants in Cartesian coordinates: 
                1             2             3             4             5 
      1  0.567891D+00
      2  0.000000D+00  0.171488D+00
      3  0.000000D+00  0.000000D+00  0.999914D+00
      4 -0.106234D+00  0.000000D+00  0.000000D+00  0.726058D-01
      5  0.000000D+00 -0.571844D-01  0.000000D+00  0.000000D+00  0.191133D-01
      6  0.000000D+00  0.000000D+00 -0.808345D+00  0.000000D+00  0.000000D+00
      7 -0.230829D+00  0.000000D+00 -0.748985D-01  0.168140D-01  0.000000D+00
      8  0.000000D+00 -0.571516D-01  0.000000D+00  0.000000D+00  0.190355D-01
      9 -0.790359D-01  0.000000D+00 -0.957844D-01 -0.354550D-01  0.000000D+00
     10 -0.230829D+00  0.000000D+00  0.748985D-01  0.168140D-01  0.000000D+00
     11  0.000000D+00 -0.571516D-01  0.000000D+00  0.000000D+00  0.190355D-01
     12  0.790359D-01  0.000000D+00 -0.957844D-01  0.354550D-01  0.000000D+00
                6             7             8             9            10 
      6  0.890603D+00
      7 -0.182800D-01  0.232499D+00
      8  0.000000D+00  0.000000D+00  0.191312D-01
      9 -0.411291D-01  0.103835D+00  0.000000D+00  0.127437D+00
     10  0.182800D-01 -0.184844D-01  0.000000D+00  0.106562D-01  0.232499D+00
     11  0.000000D+00  0.000000D+00  0.189848D-01  0.000000D+00  0.000000D+00
     12 -0.411291D-01 -0.106562D-01  0.000000D+00  0.947641D-02 -0.103835D+00
               11            12 
     11  0.191312D-01
     12  0.000000D+00  0.127437D+00
 FormGI is forming the generalized inverse of G from B-inverse, IUseBI=4.
 Force constants in internal coordinates: 
                1             2             3             4             5 
      1  0.890603D+00
      2  0.374763D-01  0.296286D+00
      3  0.374763D-01  0.625340D-02  0.296286D+00
      4  0.175928D-01  0.121258D-02 -0.972350D-02  0.115069D+00
      5  0.175928D-01 -0.972350D-02  0.121258D-02 -0.725887D-01  0.115069D+00
      6 -0.351855D-01  0.851092D-02  0.851092D-02 -0.424804D-01 -0.424804D-01
      7  0.000000D+00  0.000000D+00  0.000000D+00  0.000000D+00  0.000000D+00
                6             7 
      6  0.849608D-01
      7  0.000000D+00  0.699571D-01
 Leave Link  716 at Wed Jun 16 17:00:40 2021, MaxMem=   134217728 cpu:               0.1 elap:               0.0
 (Enter /APL/ISV/x86_64/gaussian/16/C.01/g16/l103.exe)

 GradGradGradGradGradGradGradGradGradGradGradGradGradGradGradGradGradGrad
 Berny optimization.
 Red2BG is reusing G-inverse.
 Internal  Forces:  Max     0.000290845 RMS     0.000192276
 Search for a local minimum.
 Step number   1 out of a maximum of    2
 All quantities printed in internal units (Hartrees-Bohrs-Radians)
 Second derivative matrix not updated -- analytic derivatives used.
 The second derivative matrix:
                          R1        R2        R3        A1        A2
           R1           0.89060
           R2           0.03748   0.29629
           R3           0.03748   0.00625   0.29629
           A1           0.01759   0.00121  -0.00972   0.11507
           A2           0.01759  -0.00972   0.00121  -0.07259   0.11507
           A3          -0.03519   0.00851   0.00851  -0.04248  -0.04248
           D1          -0.00000   0.00000   0.00000  -0.00000  -0.00000
                          A3        D1
           A3           0.08496
           D1           0.00000   0.06996
 ITU=  0
     Eigenvalues ---    0.06996   0.12323   0.18650   0.29119   0.29976
     Eigenvalues ---    0.89759
 Angle between quadratic step and forces=  34.17 degrees.
 Linear search not attempted -- first point.
 Iteration  1 RMS(Cart)=  0.00104116 RMS(Int)=  0.00000071
 Iteration  2 RMS(Cart)=  0.00000061 RMS(Int)=  0.00000000
 ITry= 1 IFail=0 DXMaxC= 1.62D-03 DCOld= 1.00D+10 DXMaxT= 3.00D-01 DXLimC= 3.00D+00 Rises=F
 ClnCor:  largest displacement from symmetrization is 1.27D-12 for atom     1.
 Variable       Old X    -DE/DX   Delta X   Delta X   Delta X     New X
                                 (Linear)    (Quad)   (Total)
    R1        2.27561  -0.00029   0.00000  -0.00042  -0.00042   2.27520
    R2        2.11743  -0.00018   0.00000  -0.00044  -0.00044   2.11698
    R3        2.11743  -0.00018   0.00000  -0.00044  -0.00044   2.11698
    A1        2.13644   0.00014   0.00000   0.00109   0.00109   2.13753
    A2        2.13644   0.00014   0.00000   0.00109   0.00109   2.13753
    A3        2.01030  -0.00027   0.00000  -0.00219  -0.00219   2.00812
    D1        3.14159   0.00000   0.00000   0.00000   0.00000   3.14159
         Item               Value     Threshold  Converged?
 Maximum Force            0.000291     0.000450     YES
 RMS     Force            0.000192     0.000300     YES
 Maximum Displacement     0.001618     0.001800     YES
 RMS     Displacement     0.001041     0.001200     YES
 Predicted change in Energy=-5.858420D-07
 Optimization completed.
    -- Stationary point found.
                           ----------------------------
                           !   Optimized Parameters   !
                           ! (Angstroms and Degrees)  !
 --------------------------                            --------------------------
 ! Name  Definition              Value          Derivative Info.                !
 --------------------------------------------------------------------------------
 ! R1    R(1,2)                  1.2042         -DE/DX =   -0.0003              !
 ! R2    R(1,3)                  1.1205         -DE/DX =   -0.0002              !
 ! R3    R(1,4)                  1.1205         -DE/DX =   -0.0002              !
 ! A1    A(2,1,3)              122.409          -DE/DX =    0.0001              !
 ! A2    A(2,1,4)              122.409          -DE/DX =    0.0001              !
 ! A3    A(3,1,4)              115.1819         -DE/DX =   -0.0003              !
 ! D1    D(2,1,4,3)            180.0            -DE/DX =    0.0                 !
 --------------------------------------------------------------------------------
 GradGradGradGradGradGradGradGradGradGradGradGradGradGradGradGradGradGrad

 Leave Link  103 at Wed Jun 16 17:00:40 2021, MaxMem=   134217728 cpu:               0.0 elap:               0.0
 (Enter /APL/ISV/x86_64/gaussian/16/C.01/g16/l9999.exe)

 ----------------------------------------------------------------------

 Electric dipole moment (input orientation):
 (Debye = 10**-18 statcoulomb cm , SI units = C m)
                  (au)            (Debye)         (10**-30 SI)
   Tot        0.814250D+00      0.206962D+01      0.690350D+01
   x          0.000000D+00      0.000000D+00      0.000000D+00
   y          0.000000D+00      0.000000D+00      0.000000D+00
   z         -0.814250D+00     -0.206962D+01     -0.690350D+01

 Dipole polarizability, Alpha (input orientation).
 (esu units = cm**3 , SI units = C**2 m**2 J**-1)
 Alpha(0;0):
               (au)            (10**-24 esu)      (10**-40 SI)
   iso        0.135592D+02      0.200926D+01      0.223561D+01
   aniso      0.980346D+01      0.145272D+01      0.161637D+01
   xx         0.146344D+02      0.216860D+01      0.241289D+01
   yx         0.000000D+00      0.000000D+00      0.000000D+00
   yy         0.743866D+01      0.110230D+01      0.122647D+01
   zx         0.000000D+00      0.000000D+00      0.000000D+00
   zy         0.000000D+00      0.000000D+00      0.000000D+00
   zz         0.186045D+02      0.275690D+01      0.306746D+01

 ----------------------------------------------------------------------

 Dipole orientation:
     6          0.00000000          0.00000000          0.98142310
     8          0.00000000          0.00000000         -1.29419088
     1         -1.78762628         -0.00000000          2.11628027
     1          1.78762628          0.00000000          2.11628027

 Electric dipole moment (dipole orientation):
 (Debye = 10**-18 statcoulomb cm , SI units = C m)
                  (au)            (Debye)         (10**-30 SI)
   Tot        0.814250D+00      0.206962D+01      0.690350D+01
   x          0.000000D+00      0.000000D+00      0.000000D+00
   y          0.000000D+00      0.000000D+00      0.000000D+00
   z          0.814250D+00      0.206962D+01      0.690350D+01

 Dipole polarizability, Alpha (dipole orientation).
 (esu units = cm**3 , SI units = C**2 m**2 J**-1)
 Alpha(0;0):
               (au)            (10**-24 esu)      (10**-40 SI)
   iso        0.135592D+02      0.200926D+01      0.223561D+01
   aniso      0.980346D+01      0.145272D+01      0.161637D+01
   xx         0.146344D+02      0.216860D+01      0.241289D+01
   yx         0.000000D+00      0.000000D+00      0.000000D+00
   yy         0.743866D+01      0.110230D+01      0.122647D+01
   zx         0.000000D+00      0.000000D+00      0.000000D+00
   zy         0.000000D+00      0.000000D+00      0.000000D+00
   zz         0.186045D+02      0.275690D+01      0.306746D+01

 ----------------------------------------------------------------------
 Unable to Open any file for archive entry.
 1\1\GINC-LEMON\Freq\RB3LYP\CC-pVDZ\C1H2O1\YAGI\16-Jun-2021\0\\#P Geom=
 AllCheck Guess=TCheck SCRF=Check GenChk RB3LYP/CC-pVDZ Freq\\H2CO b3ly
 p/cc-pvdz (opt/freq)\\0,1\C,0.,0.,-0.5193467373\O,0.,0.,0.6848563211\H
 ,-0.9459710891,0.,-1.1198872919\H,0.9459710891,0.,-1.1198872919\\Versi
 on=ES64L-G16RevC.01\State=1-A1\HF=-114.5076396\RMSD=5.447e-10\RMSF=1.8
 32e-04\ZeroPoint=0.0263479\Thermal=0.0292175\ETot=-114.4784222\HTot=-1
 14.477478\GTot=-114.5023093\Dipole=0.,0.,-0.8142505\DipoleDeriv=0.8971
 554,0.,0.,0.,0.1659768,0.,0.,0.,1.038286,-0.4264335,0.,0.,0.,-0.293978
 5,0.,0.,0.,-0.9086369,-0.2353609,0.,-0.1204703,0.,0.0640008,0.,-0.1057
 351,0.,-0.0648246,-0.2353609,0.,0.1204703,0.,0.0640008,0.,0.1057351,0.
 ,-0.0648246\Polar=14.6344129,0.,7.4386557,0.,0.,18.604467\Quadrupole=0
 .0445129,0.165529,-0.2100419,0.,0.,0.\PG=C02V [C2(C1O1),SGV(H2)]\NImag
 =0\\0.56789083,0.,0.17148760,0.,0.,0.99991358,-0.10623375,0.,0.,0.0726
 0576,0.,-0.05718442,0.,0.,0.01911333,0.,0.,-0.80834471,0.,0.,0.8906028
 9,-0.23082854,0.,-0.07489849,0.01681399,0.,-0.01827999,0.23249898,0.,-
 0.05715159,0.,0.,0.01903554,0.,0.,0.01913124,-0.07903589,0.,-0.0957844
 4,-0.03545501,0.,-0.04112909,0.10383469,0.,0.12743712,-0.23082854,0.,0
 .07489849,0.01681399,0.,0.01827999,-0.01848443,0.,0.01065621,0.2324989
 8,0.,-0.05715159,0.,0.,0.01903554,0.,0.,0.01898480,0.,0.,0.01913124,0.
 07903589,0.,-0.09578444,0.03545501,0.,-0.04112909,-0.01065621,0.,0.009
 47641,-0.10383469,0.,0.12743712\\0.,0.,-0.00042470,0.,0.,0.00029085,-0
 .00025360,0.,0.00006693,0.00025360,0.,0.00006693\\\@
 The archive entry for this job was punched.


 SCIENCE AND PEACE WILL TRIUMPH OVER IGNORANCE AND WAR

                          -- PASTEUR
 Job cpu time:       0 days  0 hours  0 minutes  4.3 seconds.
 Elapsed time:       0 days  0 hours  0 minutes  4.2 seconds.
 File lengths (MBytes):  RWF=      6 Int=      0 D2E=      0 Chk=      1 Scr=      1
 Normal termination of Gaussian 16 at Wed Jun 16 17:00:40 2021.

real	0m11.586s
user	0m6.775s
sys	0m3.028s
