 Entering Gaussian System, Link 0=g16
 Initial command:
 /APL/ISV/x86_64/gaussian/16/C.01/g16/l1.exe "/scr/yagi/rhodamine.62284/Gau-62294.inp" -scrdir="/scr/yagi/rhodamine.62284/"
 Entering Link 1 = /APL/ISV/x86_64/gaussian/16/C.01/g16/l1.exe PID=     62295.
  
 Copyright (c) 1988-2019, Gaussian, Inc.  All Rights Reserved.
  
 This is part of the Gaussian(R) 16 program.  It is based on
 the Gaussian(R) 09 system (copyright 2009, Gaussian, Inc.),
 the Gaussian(R) 03 system (copyright 2003, Gaussian, Inc.),
 the Gaussian(R) 98 system (copyright 1998, Gaussian, Inc.),
 the Gaussian(R) 94 system (copyright 1995, Gaussian, Inc.),
 the Gaussian 92(TM) system (copyright 1992, Gaussian, Inc.),
 the Gaussian 90(TM) system (copyright 1990, Gaussian, Inc.),
 the Gaussian 88(TM) system (copyright 1988, Gaussian, Inc.),
 the Gaussian 86(TM) system (copyright 1986, Carnegie Mellon
 University), and the Gaussian 82(TM) system (copyright 1983,
 Carnegie Mellon University). Gaussian is a federally registered
 trademark of Gaussian, Inc.
  
 This software contains proprietary and confidential information,
 including trade secrets, belonging to Gaussian, Inc.
  
 This software is provided under written license and may be
 used, copied, transmitted, or stored only in accord with that
 written license.
  
 The following legend is applicable only to US Government
 contracts under FAR:
  
                    RESTRICTED RIGHTS LEGEND
  
 Use, reproduction and disclosure by the US Government is
 subject to restrictions as set forth in subparagraphs (a)
 and (c) of the Commercial Computer Software - Restricted
 Rights clause in FAR 52.227-19.
  
 Gaussian, Inc.
 340 Quinnipiac St., Bldg. 40, Wallingford CT 06492
  
  
 ---------------------------------------------------------------
 Warning -- This program may not be used in any manner that
 competes with the business of Gaussian, Inc. or will provide
 assistance to any competitor of Gaussian, Inc.  The licensee
 of this program is prohibited from giving any competitor of
 Gaussian, Inc. access to this program.  By using this program,
 the user acknowledges that Gaussian, Inc. is engaged in the
 business of creating and licensing software in the field of
 computational chemistry and represents and warrants to the
 licensee that it is not a competitor of Gaussian, Inc. and that
 it will not use this program in any manner prohibited above.
 ---------------------------------------------------------------
  

 Cite this work as:
 Gaussian 16, Revision C.01,
 M. J. Frisch, G. W. Trucks, H. B. Schlegel, G. E. Scuseria, 
 M. A. Robb, J. R. Cheeseman, G. Scalmani, V. Barone, 
 G. A. Petersson, H. Nakatsuji, X. Li, M. Caricato, A. V. Marenich, 
 J. Bloino, B. G. Janesko, R. Gomperts, B. Mennucci, H. P. Hratchian, 
 J. V. Ortiz, A. F. Izmaylov, J. L. Sonnenberg, D. Williams-Young, 
 F. Ding, F. Lipparini, F. Egidi, J. Goings, B. Peng, A. Petrone, 
 T. Henderson, D. Ranasinghe, V. G. Zakrzewski, J. Gao, N. Rega, 
 G. Zheng, W. Liang, M. Hada, M. Ehara, K. Toyota, R. Fukuda, 
 J. Hasegawa, M. Ishida, T. Nakajima, Y. Honda, O. Kitao, H. Nakai, 
 T. Vreven, K. Throssell, J. A. Montgomery, Jr., J. E. Peralta, 
 F. Ogliaro, M. J. Bearpark, J. J. Heyd, E. N. Brothers, K. N. Kudin, 
 V. N. Staroverov, T. A. Keith, R. Kobayashi, J. Normand, 
 K. Raghavachari, A. P. Rendell, J. C. Burant, S. S. Iyengar, 
 J. Tomasi, M. Cossi, J. M. Millam, M. Klene, C. Adamo, R. Cammi, 
 J. W. Ochterski, R. L. Martin, K. Morokuma, O. Farkas, 
 J. B. Foresman, and D. J. Fox, Gaussian, Inc., Wallingford CT, 2019.
 
 ******************************************
 Gaussian 16:  ES64L-G16RevC.01  3-Jul-2019
                10-Jun-2021 
 ******************************************
 %nprocshared=16
 Will use up to   16 processors via shared memory.
 %chk=rhodamine1.chk
 %mem=1GB
 --------------------------------------
 #p opt b3lyp/cc-pvdz geom=connectivity
 --------------------------------------
 1/18=20,19=15,26=3,38=1,57=2/1,3;
 2/9=110,12=2,17=6,18=5,40=1/2;
 3/5=16,11=2,25=1,30=1,71=1,74=-5/1,2,3;
 4//1;
 5/5=2,38=5/2;
 6/7=2,8=2,9=2,10=2,28=1/1;
 7//1,2,3,16;
 1/18=20,19=15,26=3/3(2);
 2/9=110/2;
 99//99;
 2/9=110/2;
 3/5=16,11=2,25=1,30=1,71=1,74=-5/1,2,3;
 4/5=5,16=3,69=1/1;
 5/5=2,38=5/2;
 7//1,2,3,16;
 1/18=20,19=15,26=3/3(-5);
 2/9=110/2;
 6/7=2,8=2,9=2,10=2,19=2,28=1/1;
 99/9=1/99;
 Leave Link    1 at Thu Jun 10 22:16:38 2021, MaxMem=   134217728 cpu:               0.4 elap:               0.0
 (Enter /APL/ISV/x86_64/gaussian/16/C.01/g16/l101.exe)
 -------------
 Rhodamine (1)
 -------------
 Symbolic Z-matrix:
 Charge =  1 Multiplicity = 1
 C                     3.58987  -1.82408  -0.06792 
 C                     2.32486  -2.4469   -0.03123 
 C                     1.18233  -1.66635  -0.01311 
 C                     1.21734  -0.23784  -0.01926 
 C                     2.51386   0.36249  -0.08133 
 C                     3.65598  -0.39302  -0.10123 
 C                     0.00012   0.48643  -0.00011 
 C                    -1.21774  -0.23682   0.01887 
 C                    -1.18384  -1.66534   0.01293 
 C                    -2.32701  -2.44497   0.0314 
 H                    -2.22795  -3.53098   0.02372 
 C                    -3.59151  -1.82112   0.06801 
 C                    -3.65649  -0.39      0.10074 
 C                    -2.51377   0.36459   0.08078 
 H                     2.2249   -3.53283  -0.02325 
 H                     2.58568   1.44868  -0.12121 
 H                     4.63256   0.09243  -0.15221 
 H                    -4.6327    0.09624   0.15132 
 H                    -2.58461   1.45085   0.1204 
 C                     0.00084   1.97421   0.00002 
 C                    -0.5212    2.68597  -1.09554 
 C                     0.52364   2.68517   1.09568 
 C                    -0.50977   4.08248  -1.09645 
 C                     0.51372   4.08171   1.09682 
 H                     0.91782   2.14246   1.95751 
 C                     0.00237   4.78255   0.00026 
 H                    -0.90322   4.62485  -1.95839 
 H                     0.90776   4.62347   1.95888 
 H                     0.00297   5.87428   0.00037 
 O                    -0.00104  -2.3339   -0.00017 
 N                     4.72666  -2.55255  -0.08218 
 H                     5.63264  -2.10476  -0.11839 
 H                     4.70392  -3.56362  -0.07024 
 N                    -4.72889  -2.54869   0.0828 
 H                    -4.70695  -3.55978   0.07103 
 H                    -5.6345   -2.10018   0.11907 
 C                    -1.07774   1.92137  -2.31096 
 O                    -1.54642   2.55055  -3.29485 
 O                    -1.06188   0.4915   -2.32155 
 H                    -1.20603   0.17604  -3.2167 
 
 ITRead=  0  0  0  0  0  0  0  0  0  0  0  0  0  0  0  0  0  0  0  0
 ITRead=  0  0  0  0  0  0  0  0  0  0  0  0  0  0  0  0  0  0  0  0
 MicOpt= -1 -1 -1 -1 -1 -1 -1 -1 -1 -1 -1 -1 -1 -1 -1 -1 -1 -1 -1 -1
 MicOpt= -1 -1 -1 -1 -1 -1 -1 -1 -1 -1 -1 -1 -1 -1 -1 -1 -1 -1 -1 -1
 NAtoms=     40 NQM=       40 NQMF=       0 NMMI=      0 NMMIF=      0
                NMic=       0 NMicF=      0.
                    Isotopes and Nuclear Properties:
 (Nuclear quadrupole moments (NQMom) in fm**2, nuclear magnetic moments (NMagM)
  in nuclear magnetons)

  Atom         1           2           3           4           5           6           7           8           9          10
 IAtWgt=          12          12          12          12          12          12          12          12          12          12
 AtmWgt=  12.0000000  12.0000000  12.0000000  12.0000000  12.0000000  12.0000000  12.0000000  12.0000000  12.0000000  12.0000000
 NucSpn=           0           0           0           0           0           0           0           0           0           0
 AtZEff=  -0.0000000  -0.0000000  -0.0000000  -0.0000000  -0.0000000  -0.0000000  -0.0000000  -0.0000000  -0.0000000  -0.0000000
 NQMom=    0.0000000   0.0000000   0.0000000   0.0000000   0.0000000   0.0000000   0.0000000   0.0000000   0.0000000   0.0000000
 NMagM=    0.0000000   0.0000000   0.0000000   0.0000000   0.0000000   0.0000000   0.0000000   0.0000000   0.0000000   0.0000000
 AtZNuc=   6.0000000   6.0000000   6.0000000   6.0000000   6.0000000   6.0000000   6.0000000   6.0000000   6.0000000   6.0000000

  Atom        11          12          13          14          15          16          17          18          19          20
 IAtWgt=           1          12          12          12           1           1           1           1           1          12
 AtmWgt=   1.0078250  12.0000000  12.0000000  12.0000000   1.0078250   1.0078250   1.0078250   1.0078250   1.0078250  12.0000000
 NucSpn=           1           0           0           0           1           1           1           1           1           0
 AtZEff=  -0.0000000  -0.0000000  -0.0000000  -0.0000000  -0.0000000  -0.0000000  -0.0000000  -0.0000000  -0.0000000  -0.0000000
 NQMom=    0.0000000   0.0000000   0.0000000   0.0000000   0.0000000   0.0000000   0.0000000   0.0000000   0.0000000   0.0000000
 NMagM=    2.7928460   0.0000000   0.0000000   0.0000000   2.7928460   2.7928460   2.7928460   2.7928460   2.7928460   0.0000000
 AtZNuc=   1.0000000   6.0000000   6.0000000   6.0000000   1.0000000   1.0000000   1.0000000   1.0000000   1.0000000   6.0000000

  Atom        21          22          23          24          25          26          27          28          29          30
 IAtWgt=          12          12          12          12           1          12           1           1           1          16
 AtmWgt=  12.0000000  12.0000000  12.0000000  12.0000000   1.0078250  12.0000000   1.0078250   1.0078250   1.0078250  15.9949146
 NucSpn=           0           0           0           0           1           0           1           1           1           0
 AtZEff=  -0.0000000  -0.0000000  -0.0000000  -0.0000000  -0.0000000  -0.0000000  -0.0000000  -0.0000000  -0.0000000  -0.0000000
 NQMom=    0.0000000   0.0000000   0.0000000   0.0000000   0.0000000   0.0000000   0.0000000   0.0000000   0.0000000   0.0000000
 NMagM=    0.0000000   0.0000000   0.0000000   0.0000000   2.7928460   0.0000000   2.7928460   2.7928460   2.7928460   0.0000000
 AtZNuc=   6.0000000   6.0000000   6.0000000   6.0000000   1.0000000   6.0000000   1.0000000   1.0000000   1.0000000   8.0000000

  Atom        31          32          33          34          35          36          37          38          39          40
 IAtWgt=          14           1           1          14           1           1          12          16          16           1
 AtmWgt=  14.0030740   1.0078250   1.0078250  14.0030740   1.0078250   1.0078250  12.0000000  15.9949146  15.9949146   1.0078250
 NucSpn=           2           1           1           2           1           1           0           0           0           1
 AtZEff=  -0.0000000  -0.0000000  -0.0000000  -0.0000000  -0.0000000  -0.0000000  -0.0000000  -0.0000000  -0.0000000  -0.0000000
 NQMom=    2.0440000   0.0000000   0.0000000   2.0440000   0.0000000   0.0000000   0.0000000   0.0000000   0.0000000   0.0000000
 NMagM=    0.4037610   2.7928460   2.7928460   0.4037610   2.7928460   2.7928460   0.0000000   0.0000000   0.0000000   2.7928460
 AtZNuc=   7.0000000   1.0000000   1.0000000   7.0000000   1.0000000   1.0000000   6.0000000   8.0000000   8.0000000   1.0000000
 Leave Link  101 at Thu Jun 10 22:16:38 2021, MaxMem=   134217728 cpu:               2.6 elap:               0.2
 (Enter /APL/ISV/x86_64/gaussian/16/C.01/g16/l103.exe)

 GradGradGradGradGradGradGradGradGradGradGradGradGradGradGradGradGradGrad
 Berny optimization.
 Initialization pass.
                           ----------------------------
                           !    Initial Parameters    !
                           ! (Angstroms and Degrees)  !
 --------------------------                            --------------------------
 ! Name  Definition              Value          Derivative Info.                !
 --------------------------------------------------------------------------------
 ! R1    R(1,2)                  1.4105         estimate D2E/DX2                !
 ! R2    R(1,6)                  1.433          estimate D2E/DX2                !
 ! R3    R(1,31)                 1.3502         estimate D2E/DX2                !
 ! R4    R(2,3)                  1.3838         estimate D2E/DX2                !
 ! R5    R(2,15)                 1.0905         estimate D2E/DX2                !
 ! R6    R(3,4)                  1.429          estimate D2E/DX2                !
 ! R7    R(3,30)                 1.3587         estimate D2E/DX2                !
 ! R8    R(4,5)                  1.4301         estimate D2E/DX2                !
 ! R9    R(4,7)                  1.4165         estimate D2E/DX2                !
 ! R10   R(5,6)                  1.3695         estimate D2E/DX2                !
 ! R11   R(5,16)                 1.0893         estimate D2E/DX2                !
 ! R12   R(6,17)                 1.0918         estimate D2E/DX2                !
 ! R13   R(7,8)                  1.4166         estimate D2E/DX2                !
 ! R14   R(7,20)                 1.4878         estimate D2E/DX2                !
 ! R15   R(8,9)                  1.4289         estimate D2E/DX2                !
 ! R16   R(8,14)                 1.4301         estimate D2E/DX2                !
 ! R17   R(9,10)                 1.3838         estimate D2E/DX2                !
 ! R18   R(9,30)                 1.3587         estimate D2E/DX2                !
 ! R19   R(10,11)                1.0905         estimate D2E/DX2                !
 ! R20   R(10,12)                1.4105         estimate D2E/DX2                !
 ! R21   R(12,13)                1.433          estimate D2E/DX2                !
 ! R22   R(12,34)                1.3503         estimate D2E/DX2                !
 ! R23   R(13,14)                1.3695         estimate D2E/DX2                !
 ! R24   R(13,18)                1.0918         estimate D2E/DX2                !
 ! R25   R(14,19)                1.0893         estimate D2E/DX2                !
 ! R26   R(20,21)                1.4069         estimate D2E/DX2                !
 ! R27   R(20,22)                1.4069         estimate D2E/DX2                !
 ! R28   R(21,23)                1.3966         estimate D2E/DX2                !
 ! R29   R(21,37)                1.54           estimate D2E/DX2                !
 ! R30   R(22,24)                1.3966         estimate D2E/DX2                !
 ! R31   R(22,25)                1.0921         estimate D2E/DX2                !
 ! R32   R(23,26)                1.3983         estimate D2E/DX2                !
 ! R33   R(23,27)                1.0917         estimate D2E/DX2                !
 ! R34   R(24,26)                1.3982         estimate D2E/DX2                !
 ! R35   R(24,28)                1.0918         estimate D2E/DX2                !
 ! R36   R(26,29)                1.0917         estimate D2E/DX2                !
 ! R37   R(31,32)                1.0112         estimate D2E/DX2                !
 ! R38   R(31,33)                1.0114         estimate D2E/DX2                !
 ! R39   R(34,35)                1.0114         estimate D2E/DX2                !
 ! R40   R(34,36)                1.0112         estimate D2E/DX2                !
 ! R41   R(37,38)                1.2584         estimate D2E/DX2                !
 ! R42   R(37,39)                1.43           estimate D2E/DX2                !
 ! R43   R(39,40)                0.96           estimate D2E/DX2                !
 ! A1    A(2,1,6)              118.8783         estimate D2E/DX2                !
 ! A2    A(2,1,31)             121.1393         estimate D2E/DX2                !
 ! A3    A(6,1,31)             119.9805         estimate D2E/DX2                !
 ! A4    A(1,2,3)              119.4556         estimate D2E/DX2                !
 ! A5    A(1,2,15)             121.4723         estimate D2E/DX2                !
 ! A6    A(3,2,15)             119.071          estimate D2E/DX2                !
 ! A7    A(2,3,4)              122.9285         estimate D2E/DX2                !
 ! A8    A(2,3,30)             116.2364         estimate D2E/DX2                !
 ! A9    A(4,3,30)             120.8328         estimate D2E/DX2                !
 ! A10   A(3,4,5)              116.2349         estimate D2E/DX2                !
 ! A11   A(3,4,7)              119.3422         estimate D2E/DX2                !
 ! A12   A(5,4,7)              124.401          estimate D2E/DX2                !
 ! A13   A(4,5,6)              121.675          estimate D2E/DX2                !
 ! A14   A(4,5,16)             118.6823         estimate D2E/DX2                !
 ! A15   A(6,5,16)             119.641          estimate D2E/DX2                !
 ! A16   A(1,6,5)              120.8045         estimate D2E/DX2                !
 ! A17   A(1,6,17)             119.1041         estimate D2E/DX2                !
 ! A18   A(5,6,17)             120.089          estimate D2E/DX2                !
 ! A19   A(4,7,8)              118.5482         estimate D2E/DX2                !
 ! A20   A(4,7,20)             120.7227         estimate D2E/DX2                !
 ! A21   A(8,7,20)             120.7292         estimate D2E/DX2                !
 ! A22   A(7,8,9)              119.3384         estimate D2E/DX2                !
 ! A23   A(7,8,14)             124.4024         estimate D2E/DX2                !
 ! A24   A(9,8,14)             116.237          estimate D2E/DX2                !
 ! A25   A(8,9,10)             122.9268         estimate D2E/DX2                !
 ! A26   A(8,9,30)             120.8367         estimate D2E/DX2                !
 ! A27   A(10,9,30)            116.2343         estimate D2E/DX2                !
 ! A28   A(9,10,11)            119.0716         estimate D2E/DX2                !
 ! A29   A(9,10,12)            119.4558         estimate D2E/DX2                !
 ! A30   A(11,10,12)           121.4714         estimate D2E/DX2                !
 ! A31   A(10,12,13)           118.8793         estimate D2E/DX2                !
 ! A32   A(10,12,34)           121.1389         estimate D2E/DX2                !
 ! A33   A(13,12,34)           119.9799         estimate D2E/DX2                !
 ! A34   A(12,13,14)           120.8038         estimate D2E/DX2                !
 ! A35   A(12,13,18)           119.1037         estimate D2E/DX2                !
 ! A36   A(14,13,18)           120.0902         estimate D2E/DX2                !
 ! A37   A(8,14,13)            121.6744         estimate D2E/DX2                !
 ! A38   A(8,14,19)            118.677          estimate D2E/DX2                !
 ! A39   A(13,14,19)           119.6469         estimate D2E/DX2                !
 ! A40   A(7,20,21)            120.3753         estimate D2E/DX2                !
 ! A41   A(7,20,22)            120.3709         estimate D2E/DX2                !
 ! A42   A(21,20,22)           119.2538         estimate D2E/DX2                !
 ! A43   A(20,21,23)           120.2223         estimate D2E/DX2                !
 ! A44   A(20,21,37)           119.8342         estimate D2E/DX2                !
 ! A45   A(23,21,37)           119.9291         estimate D2E/DX2                !
 ! A46   A(20,22,24)           120.2206         estimate D2E/DX2                !
 ! A47   A(20,22,25)           119.8406         estimate D2E/DX2                !
 ! A48   A(24,22,25)           119.9244         estimate D2E/DX2                !
 ! A49   A(21,23,26)           120.2083         estimate D2E/DX2                !
 ! A50   A(21,23,27)           119.6257         estimate D2E/DX2                !
 ! A51   A(26,23,27)           120.166          estimate D2E/DX2                !
 ! A52   A(22,24,26)           120.2105         estimate D2E/DX2                !
 ! A53   A(22,24,28)           119.6228         estimate D2E/DX2                !
 ! A54   A(26,24,28)           120.1667         estimate D2E/DX2                !
 ! A55   A(23,26,24)           119.8742         estimate D2E/DX2                !
 ! A56   A(23,26,29)           120.0628         estimate D2E/DX2                !
 ! A57   A(24,26,29)           120.0631         estimate D2E/DX2                !
 ! A58   A(3,30,9)             121.0985         estimate D2E/DX2                !
 ! A59   A(1,31,32)            121.0476         estimate D2E/DX2                !
 ! A60   A(1,31,33)            121.3511         estimate D2E/DX2                !
 ! A61   A(32,31,33)           117.5958         estimate D2E/DX2                !
 ! A62   A(12,34,35)           121.3509         estimate D2E/DX2                !
 ! A63   A(12,34,36)           121.0476         estimate D2E/DX2                !
 ! A64   A(35,34,36)           117.5962         estimate D2E/DX2                !
 ! A65   A(21,37,38)           120.2269         estimate D2E/DX2                !
 ! A66   A(21,37,39)           119.8865         estimate D2E/DX2                !
 ! A67   A(38,37,39)           119.8865         estimate D2E/DX2                !
 ! A68   A(37,39,40)           109.5            estimate D2E/DX2                !
 ! D1    D(6,1,2,3)             -0.7201         estimate D2E/DX2                !
 ! D2    D(6,1,2,15)           178.8797         estimate D2E/DX2                !
 ! D3    D(31,1,2,3)           179.7865         estimate D2E/DX2                !
 ! D4    D(31,1,2,15)           -0.6137         estimate D2E/DX2                !
 ! D5    D(2,1,6,5)              0.7968         estimate D2E/DX2                !
 ! D6    D(2,1,6,17)          -178.6454         estimate D2E/DX2                !
 ! D7    D(31,1,6,5)          -179.7038         estimate D2E/DX2                !
 ! D8    D(31,1,6,17)            0.854          estimate D2E/DX2                !
 ! D9    D(2,1,31,32)          179.3448         estimate D2E/DX2                !
 ! D10   D(2,1,31,33)            0.2144         estimate D2E/DX2                !
 ! D11   D(6,1,31,32)           -0.1431         estimate D2E/DX2                !
 ! D12   D(6,1,31,33)         -179.2736         estimate D2E/DX2                !
 ! D13   D(1,2,3,4)             -0.5077         estimate D2E/DX2                !
 ! D14   D(1,2,3,30)           178.9505         estimate D2E/DX2                !
 ! D15   D(15,2,3,4)           179.8828         estimate D2E/DX2                !
 ! D16   D(15,2,3,30)           -0.659          estimate D2E/DX2                !
 ! D17   D(2,3,4,5)              1.5982         estimate D2E/DX2                !
 ! D18   D(2,3,4,7)            179.9731         estimate D2E/DX2                !
 ! D19   D(30,3,4,5)          -177.8358         estimate D2E/DX2                !
 ! D20   D(30,3,4,7)             0.5391         estimate D2E/DX2                !
 ! D21   D(2,3,30,9)          -179.7484         estimate D2E/DX2                !
 ! D22   D(4,3,30,9)            -0.278          estimate D2E/DX2                !
 ! D23   D(3,4,5,6)             -1.5087         estimate D2E/DX2                !
 ! D24   D(3,4,5,16)           178.0169         estimate D2E/DX2                !
 ! D25   D(7,4,5,6)           -179.7918         estimate D2E/DX2                !
 ! D26   D(7,4,5,16)            -0.2663         estimate D2E/DX2                !
 ! D27   D(3,4,7,8)             -0.2659         estimate D2E/DX2                !
 ! D28   D(3,4,7,20)           179.7364         estimate D2E/DX2                !
 ! D29   D(5,4,7,8)            177.9674         estimate D2E/DX2                !
 ! D30   D(5,4,7,20)            -2.0303         estimate D2E/DX2                !
 ! D31   D(4,5,6,1)              0.362          estimate D2E/DX2                !
 ! D32   D(4,5,6,17)           179.7987         estimate D2E/DX2                !
 ! D33   D(16,5,6,1)          -179.1591         estimate D2E/DX2                !
 ! D34   D(16,5,6,17)            0.2776         estimate D2E/DX2                !
 ! D35   D(4,7,8,9)             -0.2403         estimate D2E/DX2                !
 ! D36   D(4,7,8,14)           177.9825         estimate D2E/DX2                !
 ! D37   D(20,7,8,9)           179.7575         estimate D2E/DX2                !
 ! D38   D(20,7,8,14)           -2.0197         estimate D2E/DX2                !
 ! D39   D(4,7,20,21)          114.5933         estimate D2E/DX2                !
 ! D40   D(4,7,20,22)          -65.4029         estimate D2E/DX2                !
 ! D41   D(8,7,20,21)          -65.4044         estimate D2E/DX2                !
 ! D42   D(8,7,20,22)          114.5994         estimate D2E/DX2                !
 ! D43   D(7,8,9,10)           179.9493         estimate D2E/DX2                !
 ! D44   D(7,8,9,30)             0.5127         estimate D2E/DX2                !
 ! D45   D(14,8,9,10)            1.584          estimate D2E/DX2                !
 ! D46   D(14,8,9,30)         -177.8526         estimate D2E/DX2                !
 ! D47   D(7,8,14,13)         -179.7805         estimate D2E/DX2                !
 ! D48   D(7,8,14,19)           -0.251          estimate D2E/DX2                !
 ! D49   D(9,8,14,13)           -1.5077         estimate D2E/DX2                !
 ! D50   D(9,8,14,19)          178.0218         estimate D2E/DX2                !
 ! D51   D(8,9,10,11)          179.8917         estimate D2E/DX2                !
 ! D52   D(8,9,10,12)           -0.4975         estimate D2E/DX2                !
 ! D53   D(30,9,10,11)          -0.6476         estimate D2E/DX2                !
 ! D54   D(30,9,10,12)         178.9632         estimate D2E/DX2                !
 ! D55   D(8,9,30,3)            -0.2508         estimate D2E/DX2                !
 ! D56   D(10,9,30,3)         -179.7236         estimate D2E/DX2                !
 ! D57   D(9,10,12,13)          -0.7131         estimate D2E/DX2                !
 ! D58   D(9,10,12,34)         179.7966         estimate D2E/DX2                !
 ! D59   D(11,10,12,13)        178.888          estimate D2E/DX2                !
 ! D60   D(11,10,12,34)         -0.6023         estimate D2E/DX2                !
 ! D61   D(10,12,13,14)          0.7769         estimate D2E/DX2                !
 ! D62   D(10,12,13,18)       -178.6662         estimate D2E/DX2                !
 ! D63   D(34,12,13,14)       -179.7267         estimate D2E/DX2                !
 ! D64   D(34,12,13,18)          0.8301         estimate D2E/DX2                !
 ! D65   D(10,12,34,35)          0.1956         estimate D2E/DX2                !
 ! D66   D(10,12,34,36)        179.337          estimate D2E/DX2                !
 ! D67   D(13,12,34,35)       -179.2892         estimate D2E/DX2                !
 ! D68   D(13,12,34,36)         -0.1477         estimate D2E/DX2                !
 ! D69   D(12,13,14,8)           0.3777         estimate D2E/DX2                !
 ! D70   D(12,13,14,19)       -179.1474         estimate D2E/DX2                !
 ! D71   D(18,13,14,8)         179.8153         estimate D2E/DX2                !
 ! D72   D(18,13,14,19)          0.2903         estimate D2E/DX2                !
 ! D73   D(7,20,21,23)        -179.5179         estimate D2E/DX2                !
 ! D74   D(7,20,21,37)          -0.9021         estimate D2E/DX2                !
 ! D75   D(22,20,21,23)          0.4783         estimate D2E/DX2                !
 ! D76   D(22,20,21,37)        179.0941         estimate D2E/DX2                !
 ! D77   D(7,20,22,24)        -179.525          estimate D2E/DX2                !
 ! D78   D(7,20,22,25)          -0.9043         estimate D2E/DX2                !
 ! D79   D(21,20,22,24)          0.4788         estimate D2E/DX2                !
 ! D80   D(21,20,22,25)        179.0995         estimate D2E/DX2                !
 ! D81   D(20,21,23,26)         -0.959          estimate D2E/DX2                !
 ! D82   D(20,21,23,27)        179.0529         estimate D2E/DX2                !
 ! D83   D(37,21,23,26)       -179.5735         estimate D2E/DX2                !
 ! D84   D(37,21,23,27)          0.4384         estimate D2E/DX2                !
 ! D85   D(20,21,37,38)        180.0            estimate D2E/DX2                !
 ! D86   D(20,21,37,39)          0.0            estimate D2E/DX2                !
 ! D87   D(23,21,37,38)         -1.3801         estimate D2E/DX2                !
 ! D88   D(23,21,37,39)        178.6199         estimate D2E/DX2                !
 ! D89   D(20,22,24,26)         -0.9602         estimate D2E/DX2                !
 ! D90   D(20,22,24,28)        179.0524         estimate D2E/DX2                !
 ! D91   D(25,22,24,26)       -179.5797         estimate D2E/DX2                !
 ! D92   D(25,22,24,28)          0.4329         estimate D2E/DX2                !
 ! D93   D(21,23,26,24)          0.479          estimate D2E/DX2                !
 ! D94   D(21,23,26,29)       -179.52           estimate D2E/DX2                !
 ! D95   D(27,23,26,24)       -179.533          estimate D2E/DX2                !
 ! D96   D(27,23,26,29)          0.468          estimate D2E/DX2                !
 ! D97   D(22,24,26,23)          0.4808         estimate D2E/DX2                !
 ! D98   D(22,24,26,29)       -179.5201         estimate D2E/DX2                !
 ! D99   D(28,24,26,23)       -179.5318         estimate D2E/DX2                !
 ! D100  D(28,24,26,29)          0.4673         estimate D2E/DX2                !
 ! D101  D(21,37,39,40)       -164.3567         estimate D2E/DX2                !
 ! D102  D(38,37,39,40)         15.6433         estimate D2E/DX2                !
 --------------------------------------------------------------------------------
 Trust Radius=3.00D-01 FncErr=1.00D-07 GrdErr=1.00D-06 EigMax=2.50D+02 EigMin=1.00D-04
 Number of steps in this run=    223 maximum allowed number of steps=    240.
 GradGradGradGradGradGradGradGradGradGradGradGradGradGradGradGradGradGrad

 Leave Link  103 at Thu Jun 10 22:16:38 2021, MaxMem=   134217728 cpu:               0.2 elap:               0.0
 (Enter /APL/ISV/x86_64/gaussian/16/C.01/g16/l202.exe)
                          Input orientation:                          
 ---------------------------------------------------------------------
 Center     Atomic      Atomic             Coordinates (Angstroms)
 Number     Number       Type             X           Y           Z
 ---------------------------------------------------------------------
      1          6           0        3.589870   -1.824081   -0.067916
      2          6           0        2.324860   -2.446904   -0.031233
      3          6           0        1.182325   -1.666351   -0.013105
      4          6           0        1.217339   -0.237839   -0.019255
      5          6           0        2.513858    0.362494   -0.081334
      6          6           0        3.655976   -0.393018   -0.101231
      7          6           0        0.000117    0.486429   -0.000108
      8          6           0       -1.217742   -0.236816    0.018868
      9          6           0       -1.183843   -1.665339    0.012934
     10          6           0       -2.327013   -2.444968    0.031399
     11          1           0       -2.227946   -3.530979    0.023717
     12          6           0       -3.591510   -1.821122    0.068005
     13          6           0       -3.656489   -0.389995    0.100741
     14          6           0       -2.513770    0.364585    0.080778
     15          1           0        2.224903   -3.532833   -0.023252
     16          1           0        2.585683    1.448682   -0.121214
     17          1           0        4.632562    0.092433   -0.152214
     18          1           0       -4.632704    0.096241    0.151317
     19          1           0       -2.584611    1.450851    0.120404
     20          6           0        0.000835    1.974211    0.000017
     21          6           0       -0.521203    2.685974   -1.095543
     22          6           0        0.523640    2.685171    1.095679
     23          6           0       -0.509768    4.082478   -1.096447
     24          6           0        0.513715    4.081712    1.096815
     25          1           0        0.917818    2.142462    1.957506
     26          6           0        0.002372    4.782552    0.000262
     27          1           0       -0.903222    4.624846   -1.958390
     28          1           0        0.907764    4.623465    1.958878
     29          1           0        0.002969    5.874283    0.000369
     30          8           0       -0.001037   -2.333900   -0.000171
     31          7           0        4.726661   -2.552553   -0.082182
     32          1           0        5.632639   -2.104765   -0.118389
     33          1           0        4.703921   -3.563618   -0.070241
     34          7           0       -4.728887   -2.548694    0.082796
     35          1           0       -4.706951   -3.559776    0.071034
     36          1           0       -5.634499   -2.100176    0.119065
     37          6           0       -1.077742    1.921370   -2.310963
     38          8           0       -1.546423    2.550549   -3.294854
     39          8           0       -1.061880    0.491498   -2.321546
     40          1           0       -1.206035    0.176040   -3.216703
 ---------------------------------------------------------------------
                    Distance matrix (angstroms):
                    1          2          3          4          5
     1  C    0.000000
     2  C    1.410498   0.000000
     3  C    2.413329   1.383827   0.000000
     4  C    2.854371   2.471177   1.428954   0.000000
     5  C    2.437025   2.816194   2.427725   1.430110   0.000000
     6  C    1.432976   2.448513   2.783540   2.444944   1.369536
     7  C    4.269588   3.742972   2.456063   1.416531   2.518105
     8  C    5.063603   4.175767   2.793728   2.435380   3.780747
     9  C    4.777036   3.594967   2.366311   2.793648   4.218292
    10  C    5.950199   4.652295   3.594952   4.175693   5.597194
    11  H    6.063735   4.680415   3.886919   4.766194   6.136357
    12  C    7.182667   5.950200   4.777032   5.063539   6.485831
    13  C    7.388827   6.326518   5.005613   4.877679   6.218728
    14  C    6.485892   5.597263   4.218369   3.780753   5.030241
    15  H    2.187456   1.090549   2.137949   3.445604   3.906461
    16  H    3.423771   3.905344   3.418264   2.174193   1.089290
    17  H    2.183424   3.433418   3.875153   3.433731   2.137022
    18  H    8.446681   7.410034   6.078514   5.862057   7.155303
    19  H    6.991771   6.270438   4.891276   4.162451   5.217241
    20  C    5.226166   4.994830   3.827503   2.524563   2.986559
    21  C    6.188500   5.964836   4.797542   3.567857   3.954589
    22  C    5.575758   5.554504   4.538613   3.204416   3.277370
    23  C    7.263081   7.197404   6.089815   4.775812   4.900107
    24  C    6.760009   6.868447   5.892299   4.516550   4.384198
    25  H    5.193810   5.195876   4.296548   3.108558   3.142053
    26  C    7.518137   7.593417   6.555976   5.165351   5.084401
    27  H    8.083961   8.009001   6.907445   5.648250   5.776454
    28  H    7.271343   7.480563   6.597415   5.257483   4.989777
    29  H    8.493252   8.639116   7.632314   6.231622   6.057314
    30  O    3.627550   2.328848   1.358725   2.424516   3.688065
    31  N    1.350248   2.404663   3.654100   4.204426   3.659781
    32  H    2.062580   3.326568   4.473096   4.794801   3.976875
    33  H    2.065697   2.628403   4.000566   4.818678   4.495648
    34  N    8.351616   7.055403   5.977470   6.380288   7.807644
    35  H    8.477569   7.120064   6.186737   6.792689   8.218729
    36  H    9.230394   7.968325   6.831893   7.101768   8.514730
    37  C    6.391108   5.988045   4.822841   3.896345   4.505655
    38  O    7.478772   7.114253   5.999850   5.113027   5.621404
    39  O    5.663880   5.034853   3.875779   3.320740   4.221504
    40  H    6.075858   5.430863   4.400194   4.033325   4.868563
                    6          7          8          9         10
     6  C    0.000000
     7  C    3.761510   0.000000
     8  C    4.877699   1.416554   0.000000
     9  C    5.005565   2.456021   1.428937   0.000000
    10  C    6.326472   3.742942   2.471148   1.383835   0.000000
    11  H    6.669554   4.593952   3.445583   2.137962   1.090547
    12  C    7.388787   4.269569   2.854333   2.413330   1.410488
    13  C    7.315254   3.761523   2.444924   2.783557   2.448516
    14  C    6.218750   2.518137   1.430106   2.427736   2.816186
    15  H    3.451447   4.593983   4.766268   3.886952   4.680425
    16  H    2.130208   2.761476   4.162519   4.891262   6.270437
    17  H    1.091779   4.651657   5.862059   6.078454   7.409980
    18  H    8.306947   4.651689   3.433720   3.875172   3.433414
    19  H    6.511060   2.761422   2.174134   3.418237   3.905340
    20  C    4.355925   1.487782   2.524663   3.827526   4.994898
    21  C    5.283718   2.511922   3.204650   4.538914   5.554954
    22  C    4.551853   2.511830   3.567904   4.797371   5.964666
    23  C    6.194670   3.793878   4.516797   5.892580   6.868913
    24  C    5.597529   3.793822   4.775939   6.089753   7.197388
    25  H    4.261991   2.723394   3.738970   4.764209   5.939977
    26  C    6.336059   4.296124   5.165567   6.556109   7.593685
    27  H    7.029530   4.666625   5.257778   6.597825   7.481224
    28  H    6.079623   4.666531   5.648340   6.907284   8.008852
    29  H    7.254919   5.387855   6.231854   7.632469   8.639428
    30  O    4.141374   2.820329   2.424561   1.358740   2.328840
    31  N    2.410461   5.619819   6.380343   5.977479   7.055409
    32  H    2.614875   6.201095   7.101816   6.831893   7.968327
    33  H    3.339439   6.207541   6.792764   6.186772   7.120094
    34  N    8.659488   5.619815   4.204403   3.654112   2.404662
    35  H    8.944081   6.207522   4.818648   4.000570   2.628397
    36  H    9.448590   6.201099   4.794778   4.473107   3.326564
    37  C    5.713790   2.925899   3.178912   4.275072   5.110015
    38  O    6.777077   4.184224   4.342602   5.370907   6.052147
    39  O    5.288699   2.552829   2.456068   3.180663   3.969854
    40  H    5.802512   3.449293   3.261826   3.717758   4.321625
                   11         12         13         14         15
    11  H    0.000000
    12  C    2.187437   0.000000
    13  C    3.451441   1.432975   0.000000
    14  C    3.906452   2.437007   1.369524   0.000000
    15  H    4.453097   6.063740   6.669601   6.136425   0.000000
    16  H    6.927413   6.991791   6.511122   5.217326   4.995523
    17  H    7.760582   8.446629   8.306930   7.155307   4.353850
    18  H    4.353834   2.183416   1.091778   2.137023   7.760633
    19  H    4.995517   3.423799   2.130264   1.089294   6.927421
    20  C    5.939288   5.226291   4.356103   2.986747   5.939238
    21  C    6.543410   5.576248   4.552219   3.277637   6.882185
    22  C    6.881922   6.188477   5.283940   3.954871   6.542926
    23  C    7.884899   6.760590   5.598047   4.384588   8.162300
    24  C    8.162188   7.263248   6.195073   4.900513   7.884416
    25  H    6.769291   6.293985   5.548441   4.296365   6.151491
    26  C    8.607535   7.518583   6.336608   5.084868   8.607312
    27  H    8.497124   7.272116   6.080224   4.990180   8.948612
    28  H    8.948323   8.084032   7.029926   5.776869   8.496405
    29  H    9.666255   8.493769   7.255542   6.057822   9.665991
    30  O    2.528377   3.627545   4.141410   3.688116   2.528395
    31  N    7.023894   8.351618   8.659522   7.807694   2.687604
    32  H    7.990186   9.230391   9.448616   8.514772   3.696092
    33  H    6.932581   8.477593   8.944136   8.218799   2.479654
    34  N    2.687579   1.350262   2.410465   3.659773   7.023886
    35  H    2.479624   2.065705   3.339441   4.495636   6.932548
    36  H    3.696064   2.062591   2.614876   3.976866   7.990179
    37  C    6.041673   5.097526   4.220032   3.194712   6.774173
    38  O    6.961493   5.882407   4.962786   4.136314   7.869805
    39  O    4.800030   4.178180   3.657389   2.809849   5.681579
    40  H    5.028580   4.524208   4.162999   3.552337   5.977056
                   16         17         18         19         20
    16  H    0.000000
    17  H    2.455623   0.000000
    18  H    7.349046   9.270237   0.000000
    19  H    5.175937   7.348960   2.455730   0.000000
    20  C    2.640515   5.001715   5.001934   2.640631   0.000000
    21  C    3.483238   5.846163   5.016554   2.694756   1.406905
    22  C    2.694764   5.016250   5.846560   3.483666   1.406863
    23  C    4.179686   6.576898   5.869038   3.565271   2.430584
    24  C    3.565038   5.868502   6.577505   4.180243   2.430550
    25  H    2.753939   4.738445   6.185276   4.015007   2.168163
    26  C    4.219353   6.592353   6.593046   4.219852   2.808341
    27  H    5.063170   7.379021   6.234434   4.150024   3.417388
    28  H    4.149873   6.233866   7.379690   5.063808   3.417339
    29  H    5.125538   7.408522   7.409320   5.126083   3.900073
    30  O    4.584070   5.232633   5.232674   4.584074   4.308111
    31  N    4.538193   2.647586   9.729766   8.338044   6.544599
    32  H    4.680912   2.414327  10.502116   8.956708   6.954803
    33  H    5.441754   3.657666  10.030764   8.848952   7.265776
    34  N    8.338079   9.729723   2.647570   4.538248   6.544753
    35  H    8.848962  10.030702   3.657652   5.441796   7.265900
    36  H    8.956758  10.502079   2.414308   4.680984   6.954983
    37  C    4.294079   6.372815   4.693792   2.898895   2.550833
    38  O    5.325449   7.355160   5.236875   3.735125   3.685424
    39  O    4.366048   6.106711   4.361429   3.033511   2.952534
    40  H    5.057548   6.594490   4.805413   3.829086   3.877788
                   21         22         23         24         25
    21  C    0.000000
    22  C    2.427581   0.000000
    23  C    1.396551   2.797466   0.000000
    24  C    2.797423   1.396577   2.420313   0.000000
    25  H    3.418669   1.092088   3.889511   2.159810   0.000000
    26  C    2.422924   2.422946   1.398271   1.398241   3.411586
    27  H    2.156309   3.889166   1.091749   3.411302   4.981231
    28  H    3.889127   2.156304   3.411316   1.091753   2.481024
    29  H    3.411905   3.411926   2.162515   2.162491   4.312055
    30  O    5.164257   5.164034   6.529206   6.529045   4.971379
    31  N    7.483926   6.818101   8.513082   7.946850   6.380500
    32  H    7.859757   7.107694   8.773126   8.121121   6.676662
    33  H    8.210394   7.607988   9.311199   8.796074   7.141826
    34  N    6.818712   7.483870   7.947580   8.513248   7.576725
    35  H    7.608599   8.210258   8.796784   9.311279   8.228750
    36  H    7.108326   7.859771   8.121918   8.773384   8.019520
    37  C    1.540000   3.840967   2.543232   4.337368   4.717093
    38  O    2.430306   4.855931   2.873057   5.086786   5.816039
    39  O    2.571214   4.359301   3.834167   5.201666   4.995515
    40  H    3.356796   5.280544   4.498947   6.067804   5.928744
                   26         27         28         29         30
    26  C    0.000000
    27  H    2.163629   0.000000
    28  H    2.163613   4.315630   0.000000
    29  H    1.091731   2.493795   2.493784   0.000000
    30  O    7.116453   7.285102   7.284828   8.208184   0.000000
    31  N    8.725220   9.312937   8.381237   9.660830   4.733462
    32  H    8.896579   9.559851   8.479892   9.765884   5.639573
    33  H    9.579566  10.102282   9.249674  10.544094   4.863512
    34  N    8.725754   8.382233   9.312969   9.661459   4.733454
    35  H    9.580040   9.250673  10.102198  10.544658   4.863483
    36  H    8.897212   8.480962   9.559993   9.766634   5.639569
    37  C    3.833375   2.731949   5.429097   4.704860   4.960482
    38  O    4.270643   2.550010   6.158061   4.930144   6.091059
    39  O    4.993653   4.152303   6.266951   5.958152   3.807498
    40  H    5.747091   4.633240   7.143834   6.654413   4.254162
                   31         32         33         34         35
    31  N    0.000000
    32  H    1.011247   0.000000
    33  H    1.011391   1.730054   0.000000
    34  N    9.456988  10.372983   9.488486   0.000000
    35  H    9.488467  10.443182   9.411933   1.011388   0.000000
    36  H   10.372983  11.269641  10.443200   1.011245   1.730053
    37  C    7.659931   8.126891   8.278500   6.248394   6.991998
    38  O    8.701408   9.126928   9.319226   6.894845   7.658604
    39  O    6.912901   7.510730   7.399784   5.335781   5.951789
    40  H    7.243433   7.846597   7.668953   5.542685   6.084567
                   36         37         38         39         40
    36  H    0.000000
    37  C    6.545373   0.000000
    38  O    7.070817   1.258400   0.000000
    39  O    5.795015   1.430000   2.328477   0.000000
    40  H    5.993313   1.970533   2.400055   0.960000   0.000000
 Stoichiometry    C20H15N2O3(1+)
 Framework group  C1[X(C20H15N2O3)]
 Deg. of freedom   114
 Full point group                 C1      NOp   1
 Largest Abelian subgroup         C1      NOp   1
 Largest concise Abelian subgroup C1      NOp   1
                         Standard orientation:                         
 ---------------------------------------------------------------------
 Center     Atomic      Atomic             Coordinates (Angstroms)
 Number     Number       Type             X           Y           Z
 ---------------------------------------------------------------------
      1          6           0        4.261962    0.056831    0.223483
      2          6           0        3.434744    1.197545    0.160348
      3          6           0        2.072778    1.040890   -0.028026
      4          6           0        1.450857   -0.237222   -0.174837
      5          6           0        2.313170   -1.374306   -0.081723
      6          6           0        3.663132   -1.239680    0.105647
      7          6           0        0.048825   -0.309368   -0.363677
      8          6           0       -0.693028    0.896994   -0.394802
      9          6           0       -0.011727    2.142311   -0.230860
     10          6           0       -0.662022    3.363687   -0.249756
     11          1           0       -0.079793    4.276126   -0.116499
     12          6           0       -2.057875    3.403290   -0.448504
     13          6           0       -2.764652    2.171791   -0.641621
     14          6           0       -2.103496    0.972651   -0.618547
     15          1           0        3.843214    2.203464    0.263190
     16          1           0        1.876047   -2.369342   -0.155078
     17          1           0        4.296984   -2.125803    0.176348
     18          1           0       -3.841780    2.199671   -0.817680
     19          1           0       -2.657217    0.048834   -0.781386
     20          6           0       -0.629670   -1.623477   -0.525725
     21          6           0       -1.542858   -2.076969    0.443716
     22          6           0       -0.365239   -2.426666   -1.650103
     23          6           0       -2.170354   -3.315524    0.293427
     24          6           0       -1.011355   -3.655191   -1.804015
     25          1           0        0.330730   -2.077446   -2.415823
     26          6           0       -1.910238   -4.104075   -0.831602
     27          1           0       -2.865542   -3.664787    1.059353
     28          1           0       -0.810507   -4.263527   -2.688046
     29          1           0       -2.408053   -5.068396   -0.950522
     30          8           0        1.335224    2.181649   -0.056647
     31          7           0        5.595538    0.170406    0.401929
     32          1           0        6.186027   -0.648699    0.456806
     33          1           0        6.038405    1.074542    0.498469
     34          7           0       -2.727252    4.575775   -0.468992
     35          1           0       -2.247737    5.457676   -0.345615
     36          1           0       -3.726556    4.603234   -0.621485
     37          6           0       -1.826528   -1.218131    1.690122
     38          8           0       -2.641926   -1.616606    2.561852
     39          8           0       -1.161064    0.036481    1.857470
     40          1           0       -1.248652    0.326693    2.768352
 ---------------------------------------------------------------------
 Rotational constants (GHZ):           0.2476275           0.2235000           0.1387569
 Leave Link  202 at Thu Jun 10 22:16:38 2021, MaxMem=   134217728 cpu:               0.2 elap:               0.0
 (Enter /APL/ISV/x86_64/gaussian/16/C.01/g16/l301.exe)
 Standard basis: CC-pVDZ (5D, 7F)
 Ernie: Thresh=  0.10000D-02 Tol=  0.10000D-05 Strict=F.
 Ernie:  50 primitive shells out of 625 were deleted.
 There are   450 symmetry adapted cartesian basis functions of A   symmetry.
 There are   425 symmetry adapted basis functions of A   symmetry.
   425 basis functions,   930 primitive gaussians,   450 cartesian basis functions
    86 alpha electrons       86 beta electrons
       nuclear repulsion energy      2104.7774854953 Hartrees.
 IExCor=  402 DFT=T Ex+Corr=B3LYP ExCW=0 ScaHFX=  0.200000
 ScaDFX=  0.800000  0.720000  1.000000  0.810000 ScalE2=  1.000000  1.000000
 IRadAn=      5 IRanWt=     -1 IRanGd=            0 ICorTp=0 IEmpDi=  4
 NAtoms=   40 NActive=   40 NUniq=   40 SFac= 1.00D+00 NAtFMM=   60 NAOKFM=F Big=F
 Integral buffers will be    131072 words long.
 Raffenetti 2 integral format.
 Two-electron integral symmetry is turned on.
 Leave Link  301 at Thu Jun 10 22:16:38 2021, MaxMem=   134217728 cpu:               0.8 elap:               0.1
 (Enter /APL/ISV/x86_64/gaussian/16/C.01/g16/l302.exe)
 NPDir=0 NMtPBC=     1 NCelOv=     1 NCel=       1 NClECP=     1 NCelD=      1
         NCelK=      1 NCelE2=     1 NClLst=     1 CellRange=     0.0.
 One-electron integrals computed using PRISM.
 One-electron integral symmetry used in STVInt
 NBasis=   425 RedAO= T EigKep=  1.74D-04  NBF=   425
 NBsUse=   425 1.00D-06 EigRej= -1.00D+00 NBFU=   425
 Precomputing XC quadrature grid using
 IXCGrd= 4 IRadAn=           5 IRanWt=          -1 IRanGd=           0 AccXCQ= 0.00D+00.
 Generated NRdTot=       0 NPtTot=           0 NUsed=           0 NTot=          32
 NSgBfM=   448   448   448   448   448 MxSgAt=    40 MxSgA2=    40.
 Leave Link  302 at Thu Jun 10 22:16:39 2021, MaxMem=   134217728 cpu:               8.3 elap:               0.5
 (Enter /APL/ISV/x86_64/gaussian/16/C.01/g16/l303.exe)
 DipDrv:  MaxL=1.
 Leave Link  303 at Thu Jun 10 22:16:39 2021, MaxMem=   134217728 cpu:               1.3 elap:               0.1
 (Enter /APL/ISV/x86_64/gaussian/16/C.01/g16/l401.exe)
 ExpMin= 1.22D-01 ExpMax= 1.17D+04 ExpMxC= 4.01D+02 IAcc=3 IRadAn=         5 AccDes= 0.00D+00
 Harris functional with IExCor=  402 and IRadAn=       5 diagonalized for initial guess.
 HarFok:  IExCor=  402 AccDes= 0.00D+00 IRadAn=         5 IDoV= 1 UseB2=F ITyADJ=14
 ICtDFT=  3500011 ScaDFX=  1.000000  1.000000  1.000000  1.000000
 FoFCou: FMM=F IPFlag=           0 FMFlag=      100000 FMFlg1=           0
         NFxFlg=           0 DoJE=T BraDBF=F KetDBF=T FulRan=T
         wScrn=  0.000000 ICntrl=       500 IOpCl=  0 I1Cent=   200000004 NGrid=           0
         NMat0=    1 NMatS0=      1 NMatT0=    0 NMatD0=    1 NMtDS0=    0 NMtDT0=    0
 Petite list used in FoFCou.
 Harris En= -1106.15356739490    
 JPrj=0 DoOrth=F DoCkMO=F.
 Leave Link  401 at Thu Jun 10 22:16:40 2021, MaxMem=   134217728 cpu:              22.0 elap:               1.4
 (Enter /APL/ISV/x86_64/gaussian/16/C.01/g16/l502.exe)
 Integral symmetry usage will be decided dynamically.
 Closed shell SCF:
 Using DIIS extrapolation, IDIIS=  1040.
 NGot=   134217728 LenX=   133799962 LenY=   133597012
 Requested convergence on RMS density matrix=1.00D-08 within 128 cycles.
 Requested convergence on MAX density matrix=1.00D-06.
 Requested convergence on             energy=1.00D-06.
 No special actions if energy rises.
 Fock matrices will be formed incrementally for  20 cycles.
 Integral accuracy reduced to 1.0D-05 until final iterations.

 Cycle   1  Pass 0  IDiag  1:
 FoFJK:  IHMeth= 1 ICntrl=       0 DoSepK=F KAlg= 0 I1Cent=           0 FoldK=F
 IRaf= 820000000 NMat=       1 IRICut=       1 DoRegI=T DoRafI=F ISym2E= 0 IDoP0=0 IntGTp=1.
 FoFCou: FMM=F IPFlag=           0 FMFlag=      100000 FMFlg1=           0
         NFxFlg=           0 DoJE=F BraDBF=F KetDBF=F FulRan=T
         wScrn=  0.000000 ICntrl=         0 IOpCl=  0 I1Cent=           0 NGrid=           0
         NMat0=    1 NMatS0=      1 NMatT0=    0 NMatD0=    1 NMtDS0=    0 NMtDT0=    0
 Symmetry not used in FoFCou.
 E= -1105.75266940243    
 DIIS: error= 2.25D-02 at cycle   1 NSaved=   1.
 NSaved= 1 IEnMin= 1 EnMin= -1105.75266940243     IErMin= 1 ErrMin= 2.25D-02
 ErrMax= 2.25D-02  0.00D+00 EMaxC= 1.00D-01 BMatC= 4.79D-01 BMatP= 4.79D-01
 IDIUse=3 WtCom= 7.75D-01 WtEn= 2.25D-01
 Coeff-Com:  0.100D+01
 Coeff-En:   0.100D+01
 Coeff:      0.100D+01
 Gap=     0.090 Goal=   None    Shift=    0.000
 GapD=    0.090 DampG=0.500 DampE=0.500 DampFc=0.2500 IDamp=-1.
 Damping current iteration by 2.50D-01
 RMSDP=4.83D-03 MaxDP=1.87D-01              OVMax= 2.73D-01

 Cycle   2  Pass 0  IDiag  1:
 RMSU=  1.16D-03    CP:  9.80D-01
 E= -1105.91506924536     Delta-E=       -0.162399842934 Rises=F Damp=T
 DIIS: error= 1.43D-02 at cycle   2 NSaved=   2.
 NSaved= 2 IEnMin= 2 EnMin= -1105.91506924536     IErMin= 2 ErrMin= 1.43D-02
 ErrMax= 1.43D-02  0.00D+00 EMaxC= 1.00D-01 BMatC= 1.06D-01 BMatP= 4.79D-01
 IDIUse=3 WtCom= 8.57D-01 WtEn= 1.43D-01
 Coeff-Com: -0.578D+00 0.158D+01
 Coeff-En:   0.000D+00 0.100D+01
 Coeff:     -0.495D+00 0.150D+01
 Gap=     0.194 Goal=   None    Shift=    0.000
 RMSDP=2.34D-03 MaxDP=9.38D-02 DE=-1.62D-01 OVMax= 2.14D-01

 Cycle   3  Pass 0  IDiag  1:
 RMSU=  1.80D-03    CP:  9.29D-01  2.05D+00
 E= -1106.11612380786     Delta-E=       -0.201054562500 Rises=F Damp=F
 DIIS: error= 1.39D-02 at cycle   3 NSaved=   3.
 NSaved= 3 IEnMin= 3 EnMin= -1106.11612380786     IErMin= 3 ErrMin= 1.39D-02
 ErrMax= 1.39D-02  0.00D+00 EMaxC= 1.00D-01 BMatC= 1.07D-01 BMatP= 1.06D-01
 IDIUse=3 WtCom= 8.61D-01 WtEn= 1.39D-01
 Coeff-Com: -0.440D+00 0.104D+01 0.403D+00
 Coeff-En:   0.000D+00 0.000D+00 0.100D+01
 Coeff:     -0.379D+00 0.893D+00 0.486D+00
 Gap=     0.106 Goal=   None    Shift=    0.000
 RMSDP=1.24D-03 MaxDP=6.19D-02 DE=-2.01D-01 OVMax= 1.34D-01

 Cycle   4  Pass 0  IDiag  1:
 RMSU=  8.34D-04    CP:  9.34D-01  2.25D+00  5.10D-01
 E= -1106.18846247734     Delta-E=       -0.072338669481 Rises=F Damp=F
 DIIS: error= 8.29D-03 at cycle   4 NSaved=   4.
 NSaved= 4 IEnMin= 4 EnMin= -1106.18846247734     IErMin= 4 ErrMin= 8.29D-03
 ErrMax= 8.29D-03  0.00D+00 EMaxC= 1.00D-01 BMatC= 3.38D-02 BMatP= 1.06D-01
 IDIUse=3 WtCom= 9.17D-01 WtEn= 8.29D-02
 Coeff-Com: -0.145D+00 0.358D+00 0.348D+00 0.439D+00
 Coeff-En:   0.000D+00 0.000D+00 0.289D+00 0.711D+00
 Coeff:     -0.133D+00 0.328D+00 0.343D+00 0.462D+00
 Gap=     0.112 Goal=   None    Shift=    0.000
 RMSDP=5.18D-04 MaxDP=2.08D-02 DE=-7.23D-02 OVMax= 6.09D-02

 Cycle   5  Pass 0  IDiag  1:
 RMSU=  2.23D-04    CP:  9.34D-01  2.12D+00  6.63D-01  5.81D-01
 E= -1106.21874986950     Delta-E=       -0.030287392155 Rises=F Damp=F
 DIIS: error= 1.44D-03 at cycle   5 NSaved=   5.
 NSaved= 5 IEnMin= 5 EnMin= -1106.21874986950     IErMin= 5 ErrMin= 1.44D-03
 ErrMax= 1.44D-03  0.00D+00 EMaxC= 1.00D-01 BMatC= 2.22D-03 BMatP= 3.38D-02
 IDIUse=3 WtCom= 9.86D-01 WtEn= 1.44D-02
 Coeff-Com: -0.233D-01 0.626D-01 0.157D+00 0.305D+00 0.499D+00
 Coeff-En:   0.000D+00 0.000D+00 0.000D+00 0.452D-01 0.955D+00
 Coeff:     -0.230D-01 0.617D-01 0.155D+00 0.301D+00 0.505D+00
 Gap=     0.109 Goal=   None    Shift=    0.000
 RMSDP=1.41D-04 MaxDP=6.68D-03 DE=-3.03D-02 OVMax= 1.80D-02

 Cycle   6  Pass 0  IDiag  1:
 RMSU=  7.11D-05    CP:  9.34D-01  2.13D+00  6.59D-01  6.50D-01  5.22D-01
 E= -1106.22077173487     Delta-E=       -0.002021865373 Rises=F Damp=F
 DIIS: error= 5.95D-04 at cycle   6 NSaved=   6.
 NSaved= 6 IEnMin= 6 EnMin= -1106.22077173487     IErMin= 6 ErrMin= 5.95D-04
 ErrMax= 5.95D-04  0.00D+00 EMaxC= 1.00D-01 BMatC= 2.33D-04 BMatP= 2.22D-03
 IDIUse=3 WtCom= 9.94D-01 WtEn= 5.95D-03
 Coeff-Com:  0.174D-02-0.838D-03 0.533D-01 0.128D+00 0.314D+00 0.505D+00
 Coeff-En:   0.000D+00 0.000D+00 0.000D+00 0.000D+00 0.910D-01 0.909D+00
 Coeff:      0.173D-02-0.833D-03 0.530D-01 0.127D+00 0.312D+00 0.507D+00
 Gap=     0.110 Goal=   None    Shift=    0.000
 RMSDP=5.11D-05 MaxDP=3.16D-03 DE=-2.02D-03 OVMax= 6.66D-03

 Cycle   7  Pass 0  IDiag  1:
 RMSU=  3.07D-05    CP:  9.34D-01  2.13D+00  6.63D-01  6.33D-01  6.18D-01
                    CP:  5.76D-01
 E= -1106.22098621017     Delta-E=       -0.000214475302 Rises=F Damp=F
 DIIS: error= 2.32D-04 at cycle   7 NSaved=   7.
 NSaved= 7 IEnMin= 7 EnMin= -1106.22098621017     IErMin= 7 ErrMin= 2.32D-04
 ErrMax= 2.32D-04  0.00D+00 EMaxC= 1.00D-01 BMatC= 3.45D-05 BMatP= 2.33D-04
 IDIUse=3 WtCom= 9.98D-01 WtEn= 2.32D-03
 Coeff-Com:  0.266D-02-0.606D-02 0.109D-01 0.332D-01 0.119D+00 0.330D+00
 Coeff-Com:  0.511D+00
 Coeff-En:   0.000D+00 0.000D+00 0.000D+00 0.000D+00 0.000D+00 0.133D+00
 Coeff-En:   0.867D+00
 Coeff:      0.266D-02-0.604D-02 0.109D-01 0.331D-01 0.119D+00 0.329D+00
 Coeff:      0.511D+00
 Gap=     0.110 Goal=   None    Shift=    0.000
 RMSDP=1.71D-05 MaxDP=8.10D-04 DE=-2.14D-04 OVMax= 1.70D-03

 Cycle   8  Pass 0  IDiag  1:
 RMSU=  7.88D-06    CP:  9.34D-01  2.13D+00  6.62D-01  6.40D-01  6.12D-01
                    CP:  6.55D-01  5.99D-01
 E= -1106.22102144149     Delta-E=       -0.000035231317 Rises=F Damp=F
 DIIS: error= 4.87D-05 at cycle   8 NSaved=   8.
 NSaved= 8 IEnMin= 8 EnMin= -1106.22102144149     IErMin= 8 ErrMin= 4.87D-05
 ErrMax= 4.87D-05  0.00D+00 EMaxC= 1.00D-01 BMatC= 2.77D-06 BMatP= 3.45D-05
 IDIUse=1 WtCom= 1.00D+00 WtEn= 0.00D+00
 Coeff-Com:  0.155D-02-0.376D-02 0.251D-02 0.100D-01 0.503D-01 0.169D+00
 Coeff-Com:  0.306D+00 0.465D+00
 Coeff:      0.155D-02-0.376D-02 0.251D-02 0.100D-01 0.503D-01 0.169D+00
 Coeff:      0.306D+00 0.465D+00
 Gap=     0.110 Goal=   None    Shift=    0.000
 RMSDP=4.84D-06 MaxDP=2.44D-04 DE=-3.52D-05 OVMax= 5.60D-04

 Initial convergence to 1.0D-05 achieved.  Increase integral accuracy.
 Cycle   9  Pass 1  IDiag  1:
 E= -1106.22099137396     Delta-E=        0.000030067532 Rises=F Damp=F
 DIIS: error= 2.37D-04 at cycle   1 NSaved=   1.
 NSaved= 1 IEnMin= 1 EnMin= -1106.22099137396     IErMin= 1 ErrMin= 2.37D-04
 ErrMax= 2.37D-04  0.00D+00 EMaxC= 1.00D-01 BMatC= 1.18D-05 BMatP= 1.18D-05
 IDIUse=3 WtCom= 9.98D-01 WtEn= 2.37D-03
 Coeff-Com:  0.100D+01
 Coeff-En:   0.100D+01
 Coeff:      0.100D+01
 Gap=     0.110 Goal=   None    Shift=    0.000
 RMSDP=4.84D-06 MaxDP=2.44D-04 DE= 3.01D-05 OVMax= 4.38D-04

 Cycle  10  Pass 1  IDiag  1:
 RMSU=  1.96D-04    CP:  1.00D+00
 E= -1106.22100053141     Delta-E=       -0.000009157456 Rises=F Damp=F
 DIIS: error= 4.24D-05 at cycle   2 NSaved=   2.
 NSaved= 2 IEnMin= 2 EnMin= -1106.22100053141     IErMin= 2 ErrMin= 4.24D-05
 ErrMax= 4.24D-05  0.00D+00 EMaxC= 1.00D-01 BMatC= 1.06D-06 BMatP= 1.18D-05
 IDIUse=1 WtCom= 1.00D+00 WtEn= 0.00D+00
 Coeff-Com:  0.106D+00 0.894D+00
 Coeff:      0.106D+00 0.894D+00
 Gap=     0.110 Goal=   None    Shift=    0.000
 RMSDP=7.72D-06 MaxDP=3.95D-04 DE=-9.16D-06 OVMax= 8.97D-04

 Cycle  11  Pass 1  IDiag  1:
 RMSU=  7.44D-06    CP:  1.00D+00  1.01D+00
 E= -1106.22099783732     Delta-E=        0.000002694096 Rises=F Damp=F
 DIIS: error= 7.72D-05 at cycle   3 NSaved=   3.
 NSaved= 3 IEnMin= 2 EnMin= -1106.22100053141     IErMin= 2 ErrMin= 4.24D-05
 ErrMax= 7.72D-05  0.00D+00 EMaxC= 1.00D-01 BMatC= 3.98D-06 BMatP= 1.06D-06
 IDIUse=1 WtCom= 1.00D+00 WtEn= 0.00D+00
 Coeff-Com: -0.441D-02 0.662D+00 0.342D+00
 Coeff:     -0.441D-02 0.662D+00 0.342D+00
 Gap=     0.110 Goal=   None    Shift=    0.000
 RMSDP=4.86D-06 MaxDP=2.61D-04 DE= 2.69D-06 OVMax= 5.82D-04

 Cycle  12  Pass 1  IDiag  1:
 RMSU=  6.73D-07    CP:  1.00D+00  1.01D+00  3.56D-01
 E= -1106.22100151701     Delta-E=       -0.000003679697 Rises=F Damp=F
 DIIS: error= 5.64D-06 at cycle   4 NSaved=   4.
 NSaved= 4 IEnMin= 4 EnMin= -1106.22100151701     IErMin= 4 ErrMin= 5.64D-06
 ErrMax= 5.64D-06  0.00D+00 EMaxC= 1.00D-01 BMatC= 2.01D-08 BMatP= 1.06D-06
 IDIUse=1 WtCom= 1.00D+00 WtEn= 0.00D+00
 Coeff-Com: -0.358D-02 0.421D+00 0.220D+00 0.362D+00
 Coeff:     -0.358D-02 0.421D+00 0.220D+00 0.362D+00
 Gap=     0.110 Goal=   None    Shift=    0.000
 RMSDP=3.66D-07 MaxDP=1.68D-05 DE=-3.68D-06 OVMax= 3.70D-05

 Cycle  13  Pass 1  IDiag  1:
 RMSU=  2.49D-07    CP:  1.00D+00  1.01D+00  3.53D-01  6.04D-01
 E= -1106.22100153550     Delta-E=       -0.000000018485 Rises=F Damp=F
 DIIS: error= 8.92D-07 at cycle   5 NSaved=   5.
 NSaved= 5 IEnMin= 5 EnMin= -1106.22100153550     IErMin= 5 ErrMin= 8.92D-07
 ErrMax= 8.92D-07  0.00D+00 EMaxC= 1.00D-01 BMatC= 4.97D-10 BMatP= 2.01D-08
 IDIUse=1 WtCom= 1.00D+00 WtEn= 0.00D+00
 Coeff-Com: -0.164D-02 0.183D+00 0.954D-01 0.196D+00 0.527D+00
 Coeff:     -0.164D-02 0.183D+00 0.954D-01 0.196D+00 0.527D+00
 Gap=     0.110 Goal=   None    Shift=    0.000
 RMSDP=6.79D-08 MaxDP=3.62D-06 DE=-1.85D-08 OVMax= 6.13D-06

 Cycle  14  Pass 1  IDiag  1:
 RMSU=  5.78D-08    CP:  1.00D+00  1.01D+00  3.54D-01  6.33D-01  8.84D-01
 E= -1106.22100153585     Delta-E=       -0.000000000347 Rises=F Damp=F
 DIIS: error= 3.28D-07 at cycle   6 NSaved=   6.
 NSaved= 6 IEnMin= 6 EnMin= -1106.22100153585     IErMin= 6 ErrMin= 3.28D-07
 ErrMax= 3.28D-07  0.00D+00 EMaxC= 1.00D-01 BMatC= 6.79D-11 BMatP= 4.97D-10
 IDIUse=1 WtCom= 1.00D+00 WtEn= 0.00D+00
 Coeff-Com: -0.666D-03 0.725D-01 0.375D-01 0.863D-01 0.322D+00 0.483D+00
 Coeff:     -0.666D-03 0.725D-01 0.375D-01 0.863D-01 0.322D+00 0.483D+00
 Gap=     0.110 Goal=   None    Shift=    0.000
 RMSDP=2.81D-08 MaxDP=1.20D-06 DE=-3.47D-10 OVMax= 3.50D-06

 Cycle  15  Pass 1  IDiag  1:
 RMSU=  1.90D-08    CP:  1.00D+00  1.01D+00  3.54D-01  6.39D-01  9.02D-01
                    CP:  6.72D-01
 E= -1106.22100153591     Delta-E=       -0.000000000068 Rises=F Damp=F
 DIIS: error= 1.41D-07 at cycle   7 NSaved=   7.
 NSaved= 7 IEnMin= 7 EnMin= -1106.22100153591     IErMin= 7 ErrMin= 1.41D-07
 ErrMax= 1.41D-07  0.00D+00 EMaxC= 1.00D-01 BMatC= 1.32D-11 BMatP= 6.79D-11
 IDIUse=1 WtCom= 1.00D+00 WtEn= 0.00D+00
 Coeff-Com: -0.191D-03 0.202D-01 0.102D-01 0.279D-01 0.135D+00 0.327D+00
 Coeff-Com:  0.480D+00
 Coeff:     -0.191D-03 0.202D-01 0.102D-01 0.279D-01 0.135D+00 0.327D+00
 Coeff:      0.480D+00
 Gap=     0.110 Goal=   None    Shift=    0.000
 RMSDP=1.19D-08 MaxDP=5.06D-07 DE=-6.82D-11 OVMax= 1.59D-06

 Cycle  16  Pass 1  IDiag  1:
 RMSU=  7.55D-09    CP:  1.00D+00  1.01D+00  3.54D-01  6.37D-01  9.08D-01
                    CP:  7.41D-01  5.77D-01
 E= -1106.22100153593     Delta-E=       -0.000000000013 Rises=F Damp=F
 DIIS: error= 6.97D-08 at cycle   8 NSaved=   8.
 NSaved= 8 IEnMin= 8 EnMin= -1106.22100153593     IErMin= 8 ErrMin= 6.97D-08
 ErrMax= 6.97D-08  0.00D+00 EMaxC= 1.00D-01 BMatC= 2.86D-12 BMatP= 1.32D-11
 IDIUse=1 WtCom= 1.00D+00 WtEn= 0.00D+00
 Coeff-Com:  0.222D-05-0.738D-03-0.580D-03 0.169D-02 0.296D-01 0.135D+00
 Coeff-Com:  0.351D+00 0.484D+00
 Coeff:      0.222D-05-0.738D-03-0.580D-03 0.169D-02 0.296D-01 0.135D+00
 Coeff:      0.351D+00 0.484D+00
 Gap=     0.110 Goal=   None    Shift=    0.000
 RMSDP=5.05D-09 MaxDP=2.28D-07 DE=-1.27D-11 OVMax= 6.79D-07

 SCF Done:  E(RB3LYP) =  -1106.22100154     A.U. after   16 cycles
            NFock= 16  Conv=0.51D-08     -V/T= 2.0068
 KE= 1.098778855898D+03 PE=-6.764147422030D+03 EE= 2.454370079100D+03
 Leave Link  502 at Thu Jun 10 22:17:31 2021, MaxMem=   134217728 cpu:             812.3 elap:              50.8
 (Enter /APL/ISV/x86_64/gaussian/16/C.01/g16/l601.exe)
 Copying SCF densities to generalized density rwf, IOpCl= 0 IROHF=0.

 **********************************************************************

            Population analysis using the SCF Density.

 **********************************************************************

 Orbital symmetries:
       Occupied  (A) (A) (A) (A) (A) (A) (A) (A) (A) (A) (A) (A)
                 (A) (A) (A) (A) (A) (A) (A) (A) (A) (A) (A) (A)
                 (A) (A) (A) (A) (A) (A) (A) (A) (A) (A) (A) (A)
                 (A) (A) (A) (A) (A) (A) (A) (A) (A) (A) (A) (A)
                 (A) (A) (A) (A) (A) (A) (A) (A) (A) (A) (A) (A)
                 (A) (A) (A) (A) (A) (A) (A) (A) (A) (A) (A) (A)
                 (A) (A) (A) (A) (A) (A) (A) (A) (A) (A) (A) (A)
                 (A) (A)
       Virtual   (A) (A) (A) (A) (A) (A) (A) (A) (A) (A) (A) (A)
                 (A) (A) (A) (A) (A) (A) (A) (A) (A) (A) (A) (A)
                 (A) (A) (A) (A) (A) (A) (A) (A) (A) (A) (A) (A)
                 (A) (A) (A) (A) (A) (A) (A) (A) (A) (A) (A) (A)
                 (A) (A) (A) (A) (A) (A) (A) (A) (A) (A) (A) (A)
                 (A) (A) (A) (A) (A) (A) (A) (A) (A) (A) (A) (A)
                 (A) (A) (A) (A) (A) (A) (A) (A) (A) (A) (A) (A)
                 (A) (A) (A) (A) (A) (A) (A) (A) (A) (A) (A) (A)
                 (A) (A) (A) (A) (A) (A) (A) (A) (A) (A) (A) (A)
                 (A) (A) (A) (A) (A) (A) (A) (A) (A) (A) (A) (A)
                 (A) (A) (A) (A) (A) (A) (A) (A) (A) (A) (A) (A)
                 (A) (A) (A) (A) (A) (A) (A) (A) (A) (A) (A) (A)
                 (A) (A) (A) (A) (A) (A) (A) (A) (A) (A) (A) (A)
                 (A) (A) (A) (A) (A) (A) (A) (A) (A) (A) (A) (A)
                 (A) (A) (A) (A) (A) (A) (A) (A) (A) (A) (A) (A)
                 (A) (A) (A) (A) (A) (A) (A) (A) (A) (A) (A) (A)
                 (A) (A) (A) (A) (A) (A) (A) (A) (A) (A) (A) (A)
                 (A) (A) (A) (A) (A) (A) (A) (A) (A) (A) (A) (A)
                 (A) (A) (A) (A) (A) (A) (A) (A) (A) (A) (A) (A)
                 (A) (A) (A) (A) (A) (A) (A) (A) (A) (A) (A) (A)
                 (A) (A) (A) (A) (A) (A) (A) (A) (A) (A) (A) (A)
                 (A) (A) (A) (A) (A) (A) (A) (A) (A) (A) (A) (A)
                 (A) (A) (A) (A) (A) (A) (A) (A) (A) (A) (A) (A)
                 (A) (A) (A) (A) (A) (A) (A) (A) (A) (A) (A) (A)
                 (A) (A) (A) (A) (A) (A) (A) (A) (A) (A) (A) (A)
                 (A) (A) (A) (A) (A) (A) (A) (A) (A) (A) (A) (A)
                 (A) (A) (A) (A) (A) (A) (A) (A) (A) (A) (A) (A)
                 (A) (A) (A) (A) (A) (A) (A) (A) (A) (A) (A) (A)
                 (A) (A) (A)
 The electronic state is 1-A.
 Alpha  occ. eigenvalues --  -19.34120 -19.28646 -19.23657 -14.48200 -14.48018
 Alpha  occ. eigenvalues --  -10.43458 -10.39593 -10.39281 -10.38001 -10.37761
 Alpha  occ. eigenvalues --  -10.36225 -10.33245 -10.33130 -10.33083 -10.32972
 Alpha  occ. eigenvalues --  -10.32709 -10.32379 -10.31787 -10.31504 -10.31423
 Alpha  occ. eigenvalues --  -10.31310 -10.31077 -10.31048 -10.31000 -10.30669
 Alpha  occ. eigenvalues --   -1.24546  -1.18081  -1.10003  -1.06592  -1.06382
 Alpha  occ. eigenvalues --   -1.00495  -0.98556  -0.97368  -0.92716  -0.90648
 Alpha  occ. eigenvalues --   -0.87998  -0.86916  -0.86762  -0.86345  -0.79488
 Alpha  occ. eigenvalues --   -0.78710  -0.76740  -0.75933  -0.74027  -0.71897
 Alpha  occ. eigenvalues --   -0.70196  -0.69776  -0.69150  -0.66791  -0.65539
 Alpha  occ. eigenvalues --   -0.64149  -0.63086  -0.62395  -0.60753  -0.60341
 Alpha  occ. eigenvalues --   -0.59942  -0.59176  -0.57858  -0.56866  -0.56323
 Alpha  occ. eigenvalues --   -0.56212  -0.55798  -0.55420  -0.54644  -0.53947
 Alpha  occ. eigenvalues --   -0.53394  -0.52170  -0.51409  -0.51118  -0.50718
 Alpha  occ. eigenvalues --   -0.50462  -0.48782  -0.48344  -0.47657  -0.47091
 Alpha  occ. eigenvalues --   -0.45542  -0.45252  -0.44195  -0.41933  -0.39387
 Alpha  occ. eigenvalues --   -0.38353  -0.37481  -0.37265  -0.36550  -0.35374
 Alpha  occ. eigenvalues --   -0.32435
 Alpha virt. eigenvalues --   -0.21450  -0.16475  -0.13938  -0.13120  -0.12082
 Alpha virt. eigenvalues --   -0.11579  -0.06914  -0.06493  -0.05973  -0.05807
 Alpha virt. eigenvalues --   -0.04280  -0.03202  -0.03107  -0.02726  -0.02274
 Alpha virt. eigenvalues --   -0.01661   0.00790   0.00900   0.02381   0.02468
 Alpha virt. eigenvalues --    0.02961   0.03433   0.04122   0.04261   0.04955
 Alpha virt. eigenvalues --    0.05604   0.06525   0.07324   0.09317   0.10702
 Alpha virt. eigenvalues --    0.12414   0.13086   0.13315   0.14066   0.16600
 Alpha virt. eigenvalues --    0.16804   0.16931   0.17901   0.19216   0.19413
 Alpha virt. eigenvalues --    0.20416   0.20814   0.22837   0.23091   0.24475
 Alpha virt. eigenvalues --    0.26025   0.26583   0.27265   0.28071   0.29702
 Alpha virt. eigenvalues --    0.31113   0.31825   0.32267   0.33061   0.33229
 Alpha virt. eigenvalues --    0.33924   0.35129   0.35400   0.35759   0.36116
 Alpha virt. eigenvalues --    0.36251   0.36840   0.36937   0.37296   0.37955
 Alpha virt. eigenvalues --    0.38042   0.38354   0.38727   0.38925   0.39316
 Alpha virt. eigenvalues --    0.39998   0.40656   0.40893   0.41387   0.41729
 Alpha virt. eigenvalues --    0.42238   0.42388   0.43487   0.43537   0.44489
 Alpha virt. eigenvalues --    0.44818   0.45803   0.46694   0.47435   0.48699
 Alpha virt. eigenvalues --    0.49729   0.49965   0.50423   0.51476   0.51684
 Alpha virt. eigenvalues --    0.52533   0.52886   0.53614   0.53956   0.54839
 Alpha virt. eigenvalues --    0.55731   0.56984   0.57575   0.58047   0.58501
 Alpha virt. eigenvalues --    0.58656   0.59842   0.59991   0.60366   0.60959
 Alpha virt. eigenvalues --    0.61334   0.61543   0.62120   0.62551   0.63025
 Alpha virt. eigenvalues --    0.64171   0.64253   0.65123   0.66902   0.67310
 Alpha virt. eigenvalues --    0.68697   0.72724   0.74214   0.74461   0.74925
 Alpha virt. eigenvalues --    0.76412   0.77381   0.77739   0.78310   0.79062
 Alpha virt. eigenvalues --    0.79392   0.79894   0.80773   0.81584   0.81745
 Alpha virt. eigenvalues --    0.82637   0.83409   0.84339   0.85296   0.85715
 Alpha virt. eigenvalues --    0.86545   0.86875   0.87672   0.88101   0.88636
 Alpha virt. eigenvalues --    0.89691   0.90019   0.90463   0.90623   0.91567
 Alpha virt. eigenvalues --    0.91942   0.92541   0.92878   0.93974   0.94650
 Alpha virt. eigenvalues --    0.95360   0.95738   0.96363   0.97800   0.98516
 Alpha virt. eigenvalues --    0.98774   0.99153   0.99906   1.00361   1.01272
 Alpha virt. eigenvalues --    1.01480   1.03565   1.06027   1.07068   1.08348
 Alpha virt. eigenvalues --    1.08957   1.10965   1.12485   1.13171   1.13535
 Alpha virt. eigenvalues --    1.15207   1.15474   1.18930   1.20519   1.22160
 Alpha virt. eigenvalues --    1.23093   1.26147   1.27591   1.28381   1.29062
 Alpha virt. eigenvalues --    1.31083   1.31574   1.32519   1.34263   1.34982
 Alpha virt. eigenvalues --    1.34997   1.36003   1.36944   1.37024   1.37404
 Alpha virt. eigenvalues --    1.37960   1.38455   1.38866   1.39724   1.41350
 Alpha virt. eigenvalues --    1.41921   1.42657   1.43597   1.43836   1.44041
 Alpha virt. eigenvalues --    1.45836   1.45979   1.46361   1.46568   1.48046
 Alpha virt. eigenvalues --    1.49416   1.49935   1.50602   1.50748   1.50986
 Alpha virt. eigenvalues --    1.51602   1.52130   1.52445   1.53339   1.54512
 Alpha virt. eigenvalues --    1.55006   1.55882   1.56413   1.57465   1.58013
 Alpha virt. eigenvalues --    1.58592   1.59496   1.60067   1.60959   1.61444
 Alpha virt. eigenvalues --    1.61733   1.62437   1.63105   1.63817   1.64394
 Alpha virt. eigenvalues --    1.65321   1.65553   1.66625   1.66766   1.67528
 Alpha virt. eigenvalues --    1.67870   1.68708   1.69898   1.70968   1.71366
 Alpha virt. eigenvalues --    1.71806   1.72605   1.72671   1.73106   1.73864
 Alpha virt. eigenvalues --    1.74470   1.75230   1.76012   1.76614   1.77557
 Alpha virt. eigenvalues --    1.78608   1.79218   1.80099   1.80836   1.83270
 Alpha virt. eigenvalues --    1.84223   1.85339   1.86631   1.87457   1.87723
 Alpha virt. eigenvalues --    1.89667   1.90490   1.91082   1.94531   1.96128
 Alpha virt. eigenvalues --    1.96205   1.97265   2.00051   2.01040   2.01565
 Alpha virt. eigenvalues --    2.02103   2.02919   2.03495   2.03978   2.04776
 Alpha virt. eigenvalues --    2.06279   2.06577   2.09449   2.10074   2.10337
 Alpha virt. eigenvalues --    2.14049   2.15234   2.19102   2.22397   2.22997
 Alpha virt. eigenvalues --    2.23442   2.23750   2.24653   2.25621   2.25837
 Alpha virt. eigenvalues --    2.27427   2.27932   2.28264   2.30921   2.33188
 Alpha virt. eigenvalues --    2.33600   2.35046   2.36552   2.37506   2.41071
 Alpha virt. eigenvalues --    2.43126   2.44835   2.45344   2.47979   2.49862
 Alpha virt. eigenvalues --    2.50784   2.52885   2.54352   2.57684   2.58942
 Alpha virt. eigenvalues --    2.61448   2.62019   2.63926   2.65407   2.66549
 Alpha virt. eigenvalues --    2.67726   2.69618   2.70164   2.73898   2.76877
 Alpha virt. eigenvalues --    2.78418   2.81881   2.83384   2.84350   2.85437
 Alpha virt. eigenvalues --    2.94908   2.96487   2.99915   3.08283   3.14654
 Alpha virt. eigenvalues --    3.18386   3.20203   3.27908   3.29773   3.32792
 Alpha virt. eigenvalues --    3.42717   3.50514   3.54179   3.63565
          Condensed to atoms (all electrons):
               1          2          3          4          5          6
     1  C    4.785157   0.382088   0.033702  -0.069615   0.018676   0.376158
     2  C    0.382088   4.998482   0.508590  -0.045649  -0.051060  -0.077804
     3  C    0.033702   0.508590   4.958721   0.250052  -0.057034  -0.047697
     4  C   -0.069615  -0.045649   0.250052   5.253513   0.422781   0.014916
     5  C    0.018676  -0.051060  -0.057034   0.422781   4.864681   0.529618
     6  C    0.376158  -0.077804  -0.047697   0.014916   0.529618   4.847914
     7  C    0.000687   0.009439  -0.035814   0.288813  -0.093742   0.010371
     8  C   -0.000438   0.003779  -0.065687   0.079671   0.017569  -0.000481
     9  C    0.000517  -0.003475  -0.066539  -0.066505   0.001113   0.000134
    10  C    0.000023  -0.001583  -0.003731   0.004042   0.000065  -0.000000
    11  H    0.000006   0.000034  -0.000464   0.000182  -0.000001   0.000000
    12  C   -0.000000   0.000023   0.000523  -0.000447  -0.000004   0.000000
    13  C    0.000000  -0.000000   0.000124  -0.000423   0.000003   0.000000
    14  C   -0.000004   0.000060   0.001199   0.017112  -0.000317   0.000004
    15  H   -0.049806   0.354174  -0.005517   0.013857  -0.000317   0.007301
    16  H    0.009538  -0.000408   0.011368  -0.020680   0.382673  -0.044428
    17  H   -0.051638   0.008942  -0.000348   0.009278  -0.020689   0.379259
    18  H    0.000000  -0.000000  -0.000002   0.000013  -0.000000  -0.000000
    19  H   -0.000000   0.000000  -0.000072   0.000139  -0.000006  -0.000000
    20  C   -0.000055  -0.000080   0.014363  -0.106418  -0.027562   0.000477
    21  C    0.000000  -0.000002  -0.000730   0.000898   0.002434   0.000025
    22  C   -0.000019  -0.000007  -0.000109  -0.014874  -0.003399   0.000210
    23  C    0.000000  -0.000000   0.000000  -0.000366   0.000076  -0.000002
    24  C   -0.000000  -0.000000   0.000021   0.000714  -0.000881  -0.000029
    25  H   -0.000010  -0.000004  -0.000336  -0.001473   0.001945   0.000145
    26  C    0.000000   0.000000   0.000000   0.000045  -0.000053  -0.000002
    27  H    0.000000   0.000000  -0.000000   0.000001   0.000000  -0.000000
    28  H    0.000000   0.000000  -0.000000  -0.000007  -0.000001   0.000001
    29  H   -0.000000  -0.000000   0.000000   0.000001  -0.000001  -0.000000
    30  O    0.002311  -0.044020   0.386395  -0.022653   0.004994  -0.000086
    31  N    0.546139  -0.069749   0.002444   0.000385   0.002601  -0.063713
    32  H    0.004446   0.011870  -0.000558   0.000035   0.000023  -0.025732
    33  H    0.006625  -0.027178   0.000528  -0.000126  -0.000378   0.011028
    34  N    0.000000  -0.000000  -0.000000   0.000000   0.000000  -0.000000
    35  H   -0.000000   0.000000   0.000002  -0.000000  -0.000000   0.000000
    36  H   -0.000000   0.000000  -0.000000   0.000000  -0.000000   0.000000
    37  C   -0.000001   0.000002   0.000185   0.000435  -0.000341   0.000001
    38  O   -0.000000   0.000000   0.000001  -0.000007  -0.000002  -0.000000
    39  O   -0.000000   0.000017   0.001239  -0.003613  -0.000317  -0.000003
    40  H   -0.000000  -0.000001  -0.000084   0.000514   0.000017  -0.000001
               7          8          9         10         11         12
     1  C    0.000687  -0.000438   0.000517   0.000023   0.000006  -0.000000
     2  C    0.009439   0.003779  -0.003475  -0.001583   0.000034   0.000023
     3  C   -0.035814  -0.065687  -0.066539  -0.003731  -0.000464   0.000523
     4  C    0.288813   0.079671  -0.066505   0.004042   0.000182  -0.000447
     5  C   -0.093742   0.017569   0.001113   0.000065  -0.000001  -0.000004
     6  C    0.010371  -0.000481   0.000134  -0.000000   0.000000   0.000000
     7  C    5.432760   0.274264  -0.036453   0.008785  -0.000536   0.000599
     8  C    0.274264   5.305962   0.243663  -0.045197   0.013918  -0.070497
     9  C   -0.036453   0.243663   4.965004   0.509095  -0.005540   0.034185
    10  C    0.008785  -0.045197   0.509095   5.001534   0.353576   0.382591
    11  H   -0.000536   0.013918  -0.005540   0.353576   0.691822  -0.049959
    12  C    0.000599  -0.070497   0.034185   0.382591  -0.049959   4.788179
    13  C    0.010842   0.014640  -0.049518  -0.077257   0.007353   0.375920
    14  C   -0.092725   0.425156  -0.054216  -0.051084  -0.000335   0.018968
    15  H   -0.000553   0.000194  -0.000465   0.000031   0.000122   0.000006
    16  H   -0.031496   0.000335  -0.000077   0.000000   0.000000  -0.000000
    17  H   -0.000328   0.000012  -0.000002  -0.000000  -0.000000   0.000000
    18  H   -0.000316   0.009251  -0.000346   0.008956  -0.000200  -0.052147
    19  H   -0.033450  -0.016951   0.011726  -0.000382   0.000046   0.009587
    20  C    0.266949  -0.109531   0.013492  -0.000139   0.000007  -0.000063
    21  C   -0.036427  -0.011874  -0.000176  -0.000012  -0.000000  -0.000022
    22  C   -0.086522   0.000276  -0.000270   0.000002  -0.000000  -0.000000
    23  C    0.015683   0.000873   0.000028  -0.000000   0.000000   0.000000
    24  C    0.005889  -0.000315   0.000011   0.000000   0.000000   0.000000
    25  H   -0.014344   0.000925  -0.000043  -0.000002  -0.000000  -0.000000
    26  C   -0.001004   0.000059  -0.000000  -0.000000  -0.000000   0.000000
    27  H   -0.000004  -0.000005  -0.000000  -0.000000  -0.000000   0.000000
    28  H   -0.000428   0.000003  -0.000000   0.000000  -0.000000   0.000000
    29  H    0.000004   0.000001   0.000000  -0.000000   0.000000  -0.000000
    30  O   -0.039978  -0.021464   0.382767  -0.044284   0.002441   0.002298
    31  N   -0.000002   0.000000  -0.000000  -0.000000  -0.000000   0.000000
    32  H    0.000002   0.000000  -0.000000   0.000000   0.000000  -0.000000
    33  H    0.000000  -0.000000   0.000002   0.000000   0.000000  -0.000000
    34  N   -0.000002   0.000400   0.002439  -0.069837  -0.008155   0.544873
    35  H   -0.000000  -0.000128   0.000525  -0.027248   0.002471   0.006610
    36  H    0.000002   0.000036  -0.000557   0.011883   0.000009   0.004484
    37  C   -0.045445  -0.007457   0.000022   0.000022   0.000001   0.000009
    38  O   -0.000798   0.000122  -0.000001   0.000000   0.000000  -0.000000
    39  O    0.003085  -0.051790   0.006328   0.000568   0.000003   0.000023
    40  H    0.000175   0.002003  -0.000136   0.000019   0.000000  -0.000078
              13         14         15         16         17         18
     1  C    0.000000  -0.000004  -0.049806   0.009538  -0.051638   0.000000
     2  C   -0.000000   0.000060   0.354174  -0.000408   0.008942  -0.000000
     3  C    0.000124   0.001199  -0.005517   0.011368  -0.000348  -0.000002
     4  C   -0.000423   0.017112   0.013857  -0.020680   0.009278   0.000013
     5  C    0.000003  -0.000317  -0.000317   0.382673  -0.020689  -0.000000
     6  C    0.000000   0.000004   0.007301  -0.044428   0.379259  -0.000000
[...]
    11  H    0.007298  -0.000340   0.000117   0.000000  -0.000000  -0.000194
    12  C    0.373074   0.019851   0.000006  -0.000000   0.000000  -0.051617
    13  C    4.855867   0.524094   0.000000  -0.000000   0.000000   0.380210
    14  C    0.524094   4.854419  -0.000001  -0.000002  -0.000000  -0.020975
    15  H    0.000000  -0.000001   0.688999   0.000045  -0.000194  -0.000000
    16  H   -0.000000  -0.000002   0.000045   0.691733  -0.014883  -0.000000
    17  H    0.000000  -0.000000  -0.000194  -0.014883   0.695967  -0.000000
    18  H    0.380210  -0.020975  -0.000000  -0.000000  -0.000000   0.695958
    19  H   -0.046340   0.384250   0.000000   0.000017  -0.000000  -0.014880
    20  C    0.000037  -0.027253   0.000006   0.010674  -0.000007  -0.000007
    21  C   -0.000043   0.001098  -0.000000   0.000112   0.000002   0.000003
    22  C    0.000015  -0.001697   0.000000   0.000344   0.000003   0.000003
    23  C   -0.000006  -0.000130   0.000000   0.000073  -0.000000  -0.000000
    24  C   -0.000008  -0.000271   0.000000   0.000084  -0.000000  -0.000000
    25  H   -0.000035   0.000243  -0.000000   0.000127  -0.000000  -0.000000
    26  C   -0.000002  -0.000054  -0.000000   0.000060  -0.000000  -0.000000
    27  H    0.000000   0.000001  -0.000000   0.000002  -0.000000  -0.000000
    28  H    0.000000  -0.000001  -0.000000   0.000007  -0.000000  -0.000000
    29  H   -0.000000  -0.000001   0.000000   0.000002  -0.000000  -0.000000
    30  O   -0.000101   0.004983   0.002390  -0.000058   0.000003   0.000003
    31  N   -0.000000   0.000000  -0.008118  -0.000116  -0.007708   0.000000
    32  H    0.000000  -0.000000   0.000013  -0.000014   0.003719   0.000000
    33  H    0.000000  -0.000000   0.002442   0.000011  -0.000161  -0.000000
    34  N   -0.063534   0.002545  -0.000000  -0.000000   0.000000  -0.007709
    35  H    0.011015  -0.000379   0.000000  -0.000000  -0.000000  -0.000161
    36  H   -0.025641   0.000032   0.000000  -0.000000   0.000000   0.003719
    37  C   -0.000001  -0.000237  -0.000000  -0.000096   0.000000   0.000000
    38  O   -0.000000  -0.000013  -0.000000  -0.000024   0.000000   0.000000
    39  O    0.000021   0.000206   0.000000   0.000247  -0.000001  -0.000001
    40  H   -0.000005   0.000001  -0.000000   0.000010   0.000000   0.000000
              19         20         21         22         23         24
     1  C   -0.000000  -0.000033   0.000001  -0.000007   0.000000  -0.000000
     2  C    0.000000  -0.000140  -0.000005  -0.000003  -0.000000  -0.000000
     3  C   -0.000089   0.013286  -0.000595  -0.000035   0.000011   0.000016
     4  C    0.000575  -0.105330  -0.001991  -0.008672  -0.000027   0.000012
     5  C   -0.000001  -0.027263   0.001100  -0.001702  -0.000129  -0.000271
     6  C   -0.000000   0.000036  -0.000043   0.000015  -0.000006  -0.000008
     7  C   -0.031934   0.287078  -0.061159  -0.096690   0.013533   0.006197
     8  C   -0.019869  -0.105394  -0.001993  -0.008670  -0.000026   0.000012
     9  C    0.011361   0.013282  -0.000594  -0.000035   0.000011   0.000016
    10  C   -0.000399  -0.000140  -0.000005  -0.000003  -0.000000  -0.000000
    11  H    0.000045   0.000006  -0.000000   0.000000   0.000000   0.000000
    12  C    0.009615  -0.000033   0.000001  -0.000007   0.000000  -0.000000
    13  C   -0.046340   0.000037  -0.000043   0.000015  -0.000006  -0.000008
    14  C    0.384250  -0.027253   0.001098  -0.001697  -0.000130  -0.000271
    15  H    0.000000   0.000006  -0.000000   0.000000   0.000000   0.000000
    16  H    0.000017   0.010674   0.000112   0.000344   0.000073   0.000084
    17  H   -0.000000  -0.000007   0.000002   0.000003  -0.000000  -0.000000
    18  H   -0.014880  -0.000007   0.000003   0.000003  -0.000000  -0.000000
    19  H    0.691723   0.010666   0.000114   0.000342   0.000074   0.000084
    20  C    0.010666   5.388292   0.307902   0.486002  -0.016326   0.019871
    21  C    0.000114   0.307902   5.397176   0.020856   0.410784  -0.091783
    22  C    0.000342   0.486002   0.020856   4.783965  -0.084483   0.474153
    23  C    0.000074  -0.016326   0.410784  -0.084483   4.867340   0.028199
    24  C    0.000084   0.019871  -0.091783   0.474153   0.028199   4.746397
    25  H    0.000127  -0.048457   0.014303   0.396091  -0.001000  -0.046035
    26  C    0.000060  -0.086119   0.020539   0.015244   0.422898   0.451188
    27  H    0.000002   0.014342  -0.037387  -0.000981   0.395805   0.009891
    28  H    0.000007   0.009081   0.000455  -0.040723   0.008948   0.393582
    29  H    0.000002   0.000381   0.009509   0.009062  -0.042883  -0.049127
    30  O   -0.000058  -0.000386   0.000008  -0.000007  -0.000000  -0.000000
    31  N   -0.000000  -0.000000   0.000000   0.000000   0.000000   0.000000
    32  H   -0.000000  -0.000000   0.000000   0.000000   0.000000  -0.000000
    33  H   -0.000000   0.000000  -0.000000  -0.000000   0.000000   0.000000
    34  N   -0.000116  -0.000000   0.000000   0.000000   0.000000   0.000000
    35  H    0.000011   0.000000  -0.000000  -0.000000   0.000000   0.000000
    36  H   -0.000014  -0.000000   0.000000   0.000000   0.000000  -0.000000
    37  C   -0.000097  -0.062170   0.219345   0.010338  -0.097071  -0.001518
    38  O   -0.000024   0.004277  -0.104029  -0.000011   0.010696  -0.000026
    39  O    0.000246   0.001944  -0.069223   0.000373   0.005001   0.000005
    40  H    0.000010  -0.000308   0.012798   0.000042  -0.000900   0.000002
              25         26         27         28         29         30
     1  C    0.000001   0.000000   0.000000   0.000000  -0.000000   0.002283
     2  C   -0.000006  -0.000000   0.000000   0.000000  -0.000000  -0.043712
     3  C   -0.000141  -0.000000  -0.000000  -0.000000   0.000000   0.385297
     4  C    0.000990   0.000073  -0.000002  -0.000006   0.000001  -0.022828
     5  C    0.000243  -0.000054   0.000001  -0.000001  -0.000001   0.004983
     6  C   -0.000035  -0.000002   0.000000   0.000000  -0.000000  -0.000101
     7  C   -0.018187  -0.001154  -0.000002  -0.000400   0.000011  -0.039866
     8  C    0.000989   0.000073  -0.000002  -0.000006   0.000001  -0.022825
     9  C   -0.000141  -0.000000  -0.000000  -0.000000   0.000000   0.385321
    10  C   -0.000006  -0.000000   0.000000   0.000000  -0.000000  -0.043714
    11  H   -0.000000  -0.000000  -0.000000  -0.000000   0.000000   0.002389
    12  C    0.000001   0.000000   0.000000   0.000000  -0.000000   0.002283
    13  C   -0.000035  -0.000002   0.000000   0.000000  -0.000000  -0.000101
    14  C    0.000243  -0.000054   0.000001  -0.000001  -0.000001   0.004983
    15  H   -0.000000  -0.000000  -0.000000  -0.000000   0.000000   0.002390
    16  H    0.000127   0.000060   0.000002   0.000007   0.000002  -0.000058
    17  H   -0.000000  -0.000000  -0.000000  -0.000000  -0.000000   0.000003
    18  H   -0.000000  -0.000000  -0.000000  -0.000000  -0.000000   0.000003
    19  H    0.000127   0.000060   0.000002   0.000007   0.000002  -0.000058
    20  C   -0.048457  -0.086119   0.014342   0.009081   0.000381  -0.000386
    21  C    0.014303   0.020539  -0.037387   0.000455   0.009509   0.000008
    22  C    0.396091   0.015244  -0.000981  -0.040723   0.009062  -0.000007
    23  C   -0.001000   0.422898   0.395805   0.008948  -0.042883  -0.000000
    24  C   -0.046035   0.451188   0.009891   0.393582  -0.049127  -0.000000
    25  H    0.730398   0.010602   0.000038  -0.014513  -0.000241  -0.000003
    26  C    0.010602   4.793382  -0.051574  -0.047215   0.398128   0.000000
    27  H    0.000038  -0.051574   0.685891  -0.000200  -0.013180   0.000000
    28  H   -0.014513  -0.047215  -0.000200   0.700703  -0.013473   0.000000
    29  H   -0.000241   0.398128  -0.013180  -0.013473   0.697298  -0.000000
    30  O   -0.000003   0.000000   0.000000   0.000000  -0.000000   7.587725
    31  N    0.000000  -0.000000  -0.000000  -0.000000   0.000000  -0.000007
    32  H   -0.000000  -0.000000   0.000000   0.000000  -0.000000   0.000001
    33  H    0.000000   0.000000  -0.000000  -0.000000   0.000000  -0.000006
    34  N    0.000000  -0.000000  -0.000000  -0.000000   0.000000  -0.000007
    35  H    0.000000   0.000000  -0.000000  -0.000000   0.000000  -0.000006
    36  H   -0.000000  -0.000000   0.000000  -0.000000  -0.000000   0.000001
    37  C   -0.000030   0.014356  -0.027885   0.000034  -0.000287  -0.000001
    38  O    0.000001   0.001375   0.022679  -0.000000  -0.000000  -0.000000
    39  O    0.000012  -0.000055   0.000797  -0.000000   0.000000  -0.000001
    40  H   -0.000002  -0.000000  -0.000184   0.000000  -0.000001  -0.000004
              31         32         33         34         35         36
     1  C    0.546887   0.004442   0.006608   0.000000  -0.000000  -0.000000
     2  C   -0.069751   0.011847  -0.027139  -0.000000   0.000000   0.000000
     3  C    0.002431  -0.000558   0.000528  -0.000000   0.000002  -0.000000
     4  C    0.000391   0.000036  -0.000126   0.000000  -0.000000   0.000000
     5  C    0.002544   0.000032  -0.000379   0.000000  -0.000000  -0.000000
     6  C   -0.063536  -0.025642   0.011015  -0.000000   0.000000   0.000000
     7  C   -0.000002   0.000002  -0.000000  -0.000002  -0.000000   0.000002
     8  C    0.000000   0.000000  -0.000000   0.000390  -0.000126   0.000036
     9  C   -0.000000  -0.000000   0.000002   0.002432   0.000528  -0.000558
    10  C   -0.000000   0.000000   0.000000  -0.069752  -0.027140   0.011847
    11  H   -0.000000   0.000000   0.000000  -0.008119   0.002442   0.000013
    12  C    0.000000  -0.000000  -0.000000   0.546890   0.006609   0.004440
    13  C   -0.000000   0.000000   0.000000  -0.063534   0.011015  -0.025641
    14  C    0.000000  -0.000000  -0.000000   0.002545  -0.000379   0.000032
    15  H   -0.008118   0.000013   0.002442  -0.000000   0.000000   0.000000
    16  H   -0.000116  -0.000014   0.000011  -0.000000  -0.000000  -0.000000
    17  H   -0.007708   0.003719  -0.000161   0.000000  -0.000000   0.000000
    18  H    0.000000   0.000000  -0.000000  -0.007709  -0.000161   0.003719
    19  H   -0.000000  -0.000000  -0.000000  -0.000116   0.000011  -0.000014
    20  C   -0.000000  -0.000000   0.000000  -0.000000   0.000000  -0.000000
    21  C    0.000000   0.000000  -0.000000   0.000000  -0.000000   0.000000
    22  C    0.000000   0.000000  -0.000000   0.000000  -0.000000   0.000000
    23  C    0.000000   0.000000   0.000000   0.000000   0.000000   0.000000
    24  C    0.000000  -0.000000   0.000000   0.000000   0.000000  -0.000000
    25  H    0.000000  -0.000000   0.000000   0.000000   0.000000  -0.000000
    26  C   -0.000000  -0.000000   0.000000  -0.000000   0.000000  -0.000000
    27  H   -0.000000   0.000000  -0.000000  -0.000000  -0.000000   0.000000
    28  H   -0.000000   0.000000  -0.000000  -0.000000  -0.000000  -0.000000
    29  H    0.000000  -0.000000   0.000000   0.000000   0.000000  -0.000000
    30  O   -0.000007   0.000001  -0.000006  -0.000007  -0.000006   0.000001
    31  N    5.875133   0.369759   0.369733  -0.000000  -0.000000   0.000000
    32  H    0.369759   0.558470  -0.035444   0.000000   0.000000  -0.000000
    33  H    0.369733  -0.035444   0.560339  -0.000000  -0.000000   0.000000
    34  N   -0.000000   0.000000  -0.000000   5.875124   0.369732   0.369760
    35  H   -0.000000   0.000000  -0.000000   0.369732   0.560336  -0.035444
    36  H    0.000000  -0.000000   0.000000   0.369760  -0.035444   0.558466
    37  C   -0.000000  -0.000000   0.000000  -0.000000   0.000000  -0.000000
    38  O   -0.000000  -0.000000   0.000000  -0.000000   0.000000  -0.000000
    39  O   -0.000000   0.000000  -0.000000  -0.000000  -0.000000   0.000000
    40  H    0.000000  -0.000000   0.000000   0.000000   0.000000  -0.000000
              37         38         39         40
     1  C   -0.000000  -0.000000   0.000000  -0.000001
     2  C    0.000001  -0.000000   0.000027  -0.000002
     3  C   -0.000011   0.000000   0.000097   0.000001
     4  C   -0.000522   0.000002  -0.001053   0.000371
     5  C   -0.000237  -0.000013   0.000208   0.000001
     6  C   -0.000001  -0.000000   0.000021  -0.000005
     7  C   -0.030329  -0.000384  -0.004093  -0.000926
     8  C   -0.000526   0.000002  -0.001047   0.000370
     9  C   -0.000011   0.000000   0.000098   0.000001
    10  C    0.000001  -0.000000   0.000027  -0.000002
    11  H   -0.000000  -0.000000   0.000000  -0.000000
    12  C   -0.000000  -0.000000   0.000000  -0.000001
    13  C   -0.000001  -0.000000   0.000021  -0.000005
    14  C   -0.000237  -0.000013   0.000206   0.000001
    15  H   -0.000000  -0.000000   0.000000  -0.000000
    16  H   -0.000096  -0.000024   0.000247   0.000010
    17  H    0.000000   0.000000  -0.000001   0.000000
    18  H    0.000000   0.000000  -0.000001   0.000000
    19  H   -0.000097  -0.000024   0.000246   0.000010
    20  C   -0.062170   0.004277   0.001944  -0.000308
    21  C    0.219345  -0.104029  -0.069223   0.012798
    22  C    0.010338  -0.000011   0.000373   0.000042
    23  C   -0.097071   0.010696   0.005001  -0.000900
    24  C   -0.001518  -0.000026   0.000005   0.000002
    25  H   -0.000030   0.000001   0.000012  -0.000002
    26  C    0.014356   0.001375  -0.000055  -0.000000
    27  H   -0.027885   0.022679   0.000797  -0.000184
    28  H    0.000034  -0.000000  -0.000000   0.000000
    29  H   -0.000287  -0.000000   0.000000  -0.000001
    30  O   -0.000001  -0.000000  -0.000001  -0.000004
    31  N   -0.000000  -0.000000  -0.000000   0.000000
    32  H   -0.000000  -0.000000   0.000000  -0.000000
    33  H    0.000000   0.000000  -0.000000   0.000000
    34  N   -0.000000  -0.000000  -0.000000   0.000000
    35  H    0.000000   0.000000  -0.000000   0.000000
    36  H   -0.000000  -0.000000   0.000000  -0.000000
    37  C    4.650094   0.772003   0.423406  -0.025040
    38  O    0.772003   7.551049  -0.065195   0.010877
    39  O    0.423406  -0.065195   7.554909   0.330121
    40  H   -0.025040   0.010877   0.330121   0.510888
 Mulliken charges:
               1
     1  C    0.006374
     2  C    0.043013
     3  C    0.115926
     4  C    0.003840
     5  C    0.017927
     6  C    0.080773
     7  C    0.223440
     8  C    0.003780
     9  C    0.115945
    10  C    0.043013
    11  H   -0.004705
    12  C    0.006368
    13  C    0.080782
    14  C    0.017936
    15  H   -0.004707
    16  H    0.004482
    17  H   -0.001735
    18  H   -0.001730
    19  H    0.004488
    20  C   -0.087794
    21  C   -0.047253
    22  C    0.046877
    23  C    0.079616
    24  C    0.059339
    25  H   -0.025332
    26  C    0.058250
    27  H    0.001950
    28  H    0.003723
    29  H    0.004798
    30  O   -0.203981
    31  N   -0.017640
    32  H    0.113336
    33  H    0.112578
    34  N   -0.017635
    35  H    0.112580
    36  H    0.113339
    37  C    0.156493
    38  O   -0.203241
    39  O   -0.177099
    40  H    0.161888
 Sum of Mulliken charges =   1.00000
 Mulliken charges with hydrogens summed into heavy atoms:
               1
     1  C    0.006374
     2  C    0.038306
     3  C    0.115926
     4  C    0.003840
     5  C    0.022409
     6  C    0.079038
     7  C    0.223440
     8  C    0.003780
     9  C    0.115945
    10  C    0.038308
    12  C    0.006368
    13  C    0.079052
    14  C    0.022424
    20  C   -0.087794
    21  C   -0.047253
    22  C    0.021545
    23  C    0.081566
    24  C    0.063062
    26  C    0.063048
    30  O   -0.203981
    31  N    0.208274
    34  N    0.208284
    37  C    0.156493
    38  O   -0.203241
    39  O   -0.015211
 Electronic spatial extent (au):  <R**2>=           8047.3252
 Charge=              1.0000 electrons
 Dipole moment (field-independent basis, Debye):
    X=              7.0749    Y=              0.0158    Z=             -1.8677  Tot=              7.3173
 Quadrupole moment (field-independent basis, Debye-Ang):
   XX=            -92.6866   YY=            -50.1096   ZZ=           -136.2056
   XY=             -0.0892   XZ=             13.8528   YZ=             -0.0157
 Traceless Quadrupole moment (field-independent basis, Debye-Ang):
   XX=              0.3140   YY=             42.8910   ZZ=            -43.2049
   XY=             -0.0892   XZ=             13.8528   YZ=             -0.0157
 Octapole moment (field-independent basis, Debye-Ang**2):
  XXX=             90.7683  YYY=              1.6352  ZZZ=             18.1710  XYY=            233.3580
  XXY=             -0.8588  XXZ=            -36.7997  XZZ=             -5.1815  YZZ=             -0.0287
  YYZ=              9.7899  XYZ=             -0.2388
 Hexadecapole moment (field-independent basis, Debye-Ang**3):
 XXXX=          -3829.2594 YYYY=          -2003.5036 ZZZZ=          -1000.4005 XXXY=             -2.9435
 XXXZ=            213.0445 YYYX=             -0.8521 YYYZ=             -1.3385 ZZZX=             79.0794
 ZZZY=              0.1803 XXYY=           -818.6413 XXZZ=          -1030.9666 YYZZ=          -1038.3268
 XXYZ=              0.0123 YYXZ=              6.0979 ZZXY=              0.0905
 N-N= 2.088329534307D+03 E-N=-6.731486786628D+03  KE= 1.099053843996D+03
 No NMR shielding tensors so no spin-rotation constants.
 Leave Link  601 at Thu Jun 10 22:31:17 2021, MaxMem=   134217728 cpu:               3.1 elap:               0.2
 (Enter /APL/ISV/x86_64/gaussian/16/C.01/g16/l9999.exe)
 Unable to Open any file for archive entry.
 1\1\GINC-LEMON\FOpt\RB3LYP\CC-pVDZ\C20H15N2O3(1+)\YAGI\10-Jun-2021\0\\
 #p opt b3lyp/cc-pvdz geom=connectivity\\Rhodamine (1)\\1,1\C,3.5265058
 648,-1.81369124,-0.2283592853\C,2.2787024727,-2.4554250473,-0.08114935
 96\C,1.1243306181,-1.6935253328,-0.0347101104\C,1.1346480281,-0.268758
 5134,-0.1274045639\C,2.4122231696,0.3526006778,-0.277045701\C,3.565545
 4755,-0.3839063348,-0.3263878671\C,-0.0886476384,0.433889875,-0.078024
 2529\C,-1.2880015197,-0.2932096744,0.0811196846\C,-1.2334829102,-1.717
 3295884,0.1681362436\C,-2.3633702558,-2.5022413615,0.3181213748\H,-2.2
 533694426,-3.5854648061,0.3801093999\C,-3.6305681211,-1.8858469672,0.3
 872875785\C,-3.7143769015,-0.4572705044,0.3001991531\C,-2.5845444918,0
 .3022427385,0.1531988965\H,2.2025586339,-3.540514908,-0.0030568012\H,2
 .4592548345,1.438835405,-0.353422882\H,4.5301782979,0.1141685695,-0.44
 1916864\H,-4.694347878,0.0211599384,0.3521780328\H,-2.665559217,1.3872
 071489,0.0880720413\C,-0.1052330887,1.9315034505,-0.09644867\C,-0.2142
 397612,2.7180180203,-1.2672703826\C,-0.0043089525,2.5751627047,1.14814
 84725\C,-0.2188512451,4.1186094736,-1.1562718077\C,-0.0104547308,3.969
 0197311,1.2406045223\H,0.0800435608,1.9728372968,2.0550314175\C,-0.118
 189233,4.7448043794,0.0837757247\H,-0.304156939,4.6972841863,-2.076603
 2034\H,0.0693191472,4.4445879934,2.2201826259\H,-0.1237246677,5.834278
 4981,0.1477743008\O,-0.0443980852,-2.3727133383,0.1068646591\N,4.67439
 15913,-2.5232666912,-0.2768958893\H,5.5682124958,-2.0626779589,-0.3844
 635681\H,4.6724307321,-3.5324814901,-0.2106456384\N,-4.7555188322,-2.6
 184034281,0.5333574885\H,-4.7218463656,-3.627093486,0.5990879243\H,-5.
 6633654875,-2.1757974804,0.5838323452\C,-0.329064893,2.1824423017,-2.6
 614342184\O,-0.4213042819,2.877640349,-3.6467740705\O,-0.3207922725,0.
 8287023687,-2.7285908335\H,-0.4000750004,0.6092229446,-3.6759132465\\V
 ersion=ES64L-G16RevC.01\State=1-A\HF=-1106.2473387\RMSD=8.566e-09\RMSF
 =9.201e-06\Dipole=0.1322741,-2.599405,1.2301621\Quadrupole=31.3840639,
 2.8734804,-34.2575443,0.6095115,-5.7599279,3.6741281\PG=C01 [X(C20H15N
 2O3)]\\@
 The archive entry for this job was punched.


 IN THE WOODS WE RETURN TO REASON AND FAITH.

                                 -- EMERSON
 Job cpu time:       0 days  3 hours 52 minutes 51.6 seconds.
 Elapsed time:       0 days  0 hours 14 minutes 38.5 seconds.
 File lengths (MBytes):  RWF=    117 Int=      0 D2E=      0 Chk=     15 Scr=      1
 Normal termination of Gaussian 16 at Thu Jun 10 22:31:17 2021.

real	14m39.590s
user	232m30.017s
sys	0m21.599s
