 Entering Gaussian System, Link 0=g16
 Initial command:
 /APL/ISV/x86_64/gaussian/16/C.01/g16/l1.exe "/scr/yagi/rhodamine.4435/Gau-12806.inp" -scrdir="/scr/yagi/rhodamine.4435/"
 Entering Link 1 = /APL/ISV/x86_64/gaussian/16/C.01/g16/l1.exe PID=     12807.
  
 Copyright (c) 1988-2019, Gaussian, Inc.  All Rights Reserved.
  
 This is part of the Gaussian(R) 16 program.  It is based on
 the Gaussian(R) 09 system (copyright 2009, Gaussian, Inc.),
 the Gaussian(R) 03 system (copyright 2003, Gaussian, Inc.),
 the Gaussian(R) 98 system (copyright 1998, Gaussian, Inc.),
 the Gaussian(R) 94 system (copyright 1995, Gaussian, Inc.),
 the Gaussian 92(TM) system (copyright 1992, Gaussian, Inc.),
 the Gaussian 90(TM) system (copyright 1990, Gaussian, Inc.),
 the Gaussian 88(TM) system (copyright 1988, Gaussian, Inc.),
 the Gaussian 86(TM) system (copyright 1986, Carnegie Mellon
 University), and the Gaussian 82(TM) system (copyright 1983,
 Carnegie Mellon University). Gaussian is a federally registered
 trademark of Gaussian, Inc.
  
 This software contains proprietary and confidential information,
 including trade secrets, belonging to Gaussian, Inc.
  
 This software is provided under written license and may be
 used, copied, transmitted, or stored only in accord with that
 written license.
  
 The following legend is applicable only to US Government
 contracts under FAR:
  
                    RESTRICTED RIGHTS LEGEND
  
 Use, reproduction and disclosure by the US Government is
 subject to restrictions as set forth in subparagraphs (a)
 and (c) of the Commercial Computer Software - Restricted
 Rights clause in FAR 52.227-19.
  
 Gaussian, Inc.
 340 Quinnipiac St., Bldg. 40, Wallingford CT 06492
  
  
 ---------------------------------------------------------------
 Warning -- This program may not be used in any manner that
 competes with the business of Gaussian, Inc. or will provide
 assistance to any competitor of Gaussian, Inc.  The licensee
 of this program is prohibited from giving any competitor of
 Gaussian, Inc. access to this program.  By using this program,
 the user acknowledges that Gaussian, Inc. is engaged in the
 business of creating and licensing software in the field of
 computational chemistry and represents and warrants to the
 licensee that it is not a competitor of Gaussian, Inc. and that
 it will not use this program in any manner prohibited above.
 ---------------------------------------------------------------
  

 Cite this work as:
 Gaussian 16, Revision C.01,
 M. J. Frisch, G. W. Trucks, H. B. Schlegel, G. E. Scuseria, 
 M. A. Robb, J. R. Cheeseman, G. Scalmani, V. Barone, 
 G. A. Petersson, H. Nakatsuji, X. Li, M. Caricato, A. V. Marenich, 
 J. Bloino, B. G. Janesko, R. Gomperts, B. Mennucci, H. P. Hratchian, 
 J. V. Ortiz, A. F. Izmaylov, J. L. Sonnenberg, D. Williams-Young, 
 F. Ding, F. Lipparini, F. Egidi, J. Goings, B. Peng, A. Petrone, 
 T. Henderson, D. Ranasinghe, V. G. Zakrzewski, J. Gao, N. Rega, 
 G. Zheng, W. Liang, M. Hada, M. Ehara, K. Toyota, R. Fukuda, 
 J. Hasegawa, M. Ishida, T. Nakajima, Y. Honda, O. Kitao, H. Nakai, 
 T. Vreven, K. Throssell, J. A. Montgomery, Jr., J. E. Peralta, 
 F. Ogliaro, M. J. Bearpark, J. J. Heyd, E. N. Brothers, K. N. Kudin, 
 V. N. Staroverov, T. A. Keith, R. Kobayashi, J. Normand, 
 K. Raghavachari, A. P. Rendell, J. C. Burant, S. S. Iyengar, 
 J. Tomasi, M. Cossi, J. M. Millam, M. Klene, C. Adamo, R. Cammi, 
 J. W. Ochterski, R. L. Martin, K. Morokuma, O. Farkas, 
 J. B. Foresman, and D. J. Fox, Gaussian, Inc., Wallingford CT, 2019.
 
 ******************************************
 Gaussian 16:  ES64L-G16RevC.01  3-Jul-2019
                11-Jun-2021 
 ******************************************
 %NprocShared=16
 Will use up to   16 processors via shared memory.
 %oldchk=rhodamine2.chk
 %chk=rhodamine2_tddft_opt.chk
 %mem=1gb
 Copying data from "rhodamine2.chk" to current chk file "rhodamine2_tddft_opt.chk"
 IOpt=  2 FromEx=T IUOpen= 4 IOptOp= 5 NList=   0 IFRang= 0 IUIn= 4 IUOut= 2.
 ----------------------------------------------------------------------
 #p B3LYP/cc-pVDZ TD=(singlets,root=1) geom=checkpoint guess=read opt=(
 maxcycles=20)
 ----------------------------------------------------------------------
 1/6=20,18=20,19=15,26=3,29=2,38=1/1,3;
 2/9=110,12=2,40=1/2;
 3/5=16,11=9,14=-4,25=1,30=1,71=1,74=-5,116=-2/1,2,3,8;
 4/5=1/1;
 5/5=2,38=6/2;
 8/6=1,10=1,107=1/1;
 9/8=1,15=2,42=1,48=1,70=2/14;
 10/5=4,28=1/2;
 6/7=2,8=2,9=2,10=2/1;
 7/12=6,13=5,14=1/1,2,3,16;
 1/6=20,18=20,19=15,26=3/3(2);
 2/9=110/2;
 99//99;
 2/9=110/2;
 3/5=16,11=9,14=-2,25=1,30=1,71=1,74=-5/1,2,3,8;
 4/5=5,16=3,69=1/1;
 5/5=2,38=5/2;
 8/6=1,10=1,107=1/1;
 9/8=1,15=2,42=1,48=1,49=4,70=2/14;
 10/5=4,28=1/2;
 7/12=6,13=5,14=1/1,2,3,16;
 1/6=20,18=20,19=15,26=3/3(-8);
 2/9=110/2;
 6/7=2,8=2,9=2,10=2/1;
 99/9=10/99;
 Leave Link    1 at Fri Jun 11 02:24:31 2021, MaxMem=   134217728 cpu:               1.0 elap:               0.1
 (Enter /APL/ISV/x86_64/gaussian/16/C.01/g16/l101.exe)
 ---------------
 rhodamine TDDFT
 ---------------
 Structure from the checkpoint file:  "rhodamine2_tddft_opt.chk"
 Charge =  1 Multiplicity = 1
 Redundant internal coordinates found in file.  (old form).
 C,0,-3.6528097637,-0.9501245478,0.0984349706
 C,0,-2.4032363987,-1.6262425893,0.1571905631
 C,0,-1.2208504141,-0.9265930493,0.0103769207
 C,0,-1.1711482921,0.4795427105,-0.222090297
 C,0,-2.4307374893,1.141643441,-0.300431781
 C,0,-3.6162499886,0.4692349149,-0.1539716415
 C,0,0.0809594291,1.1164270408,-0.357427398
 C,0,1.2524013539,0.3360810308,-0.2771286247
 C,0,1.1452026461,-1.0673422582,-0.0418758052
 C,0,2.2431088603,-1.9013379243,0.0544161119
 H,0,2.0546861764,-2.959641474,0.2142706916
 C,0,3.5572961249,-1.3766889667,-0.0767918656
 C,0,3.6802892019,0.0407140884,-0.3115659958
 C,0,2.5780881091,0.848020137,-0.4053197702
 H,0,-2.3281053892,-2.6982334835,0.3162082768
 H,0,-2.4455425014,2.2155389829,-0.4876744525
 H,0,-4.5406663639,1.0338738365,-0.2367946205
 H,0,4.6646459579,0.4938069663,-0.4005938199
 H,0,2.7104479463,1.9165602889,-0.5760259148
 C,0,0.1598664474,2.5782147015,-0.6749262778
 C,0,0.2255220027,3.6080407768,0.2928703835
 C,0,0.1639127152,2.9260847943,-2.0360356106
 C,0,0.2915314601,4.9465850327,-0.1297594012
 C,0,0.2303502399,4.2616054303,-2.4396533426
 H,0,0.1130280472,2.1351364775,-2.7870974928
 C,0,0.2942640594,5.2773500158,-1.4825390412
 H,0,0.3407981755,5.716795151,0.6405725642
 H,0,0.2316699891,4.5039873212,-3.5043161733
 H,0,0.3462166334,6.3234447154,-1.7894161938
 O,0,-0.0738427328,-1.6582741591,0.0935482209
 N,0,-4.8347801428,-1.6021867419,0.2729373267
 N,0,4.6542611528,-2.1707758111,0.0180048482
 C,0,0.2333127143,3.4028422322,1.7766520045
 O,0,0.2797955561,4.3042474197,2.5827854088
 O,0,0.184930442,2.1017608493,2.1505035404
 H,0,0.1952072326,2.1063505397,3.1259091757
 C,0,6.0189429716,-1.663189174,-0.2000570443
 H,0,6.6079130926,-2.5017362255,-0.6007696966
 H,0,6.00148046,-0.9045063218,-0.9951364125
 C,0,6.6790549999,-1.1170519122,1.0677775156
 H,0,6.1276633113,-0.2543568984,1.4728185156
 H,0,6.7304166643,-1.8857591111,1.854951323
 H,0,7.7078167612,-0.7929081046,0.8452537559
 C,0,4.5524363839,-3.6013594194,0.3440995771
 H,0,3.7401956703,-3.747799664,1.0708228442
 H,0,5.4793366879,-3.8755235861,0.8695311034
 C,0,4.3605384136,-4.4968141525,-0.8824038775
 H,0,4.3241088997,-5.5532486868,-0.5732298231
 H,0,3.4255594493,-4.2622777215,-1.4142216795
 H,0,5.1929541679,-4.3823794361,-1.594476081
 C,0,-4.8659379192,-3.0662412544,0.4081036928
 H,0,-5.7755283008,-3.3339963865,0.9561947657
 H,0,-4.0334447032,-3.3737068643,1.0567252135
 C,0,-6.1054168281,-0.8508369519,0.1337779924
 H,0,-6.0340541566,0.0465426026,0.7675377837
 H,0,-6.2013693539,-0.4992331661,-0.9096228138
 C,0,-7.3690229178,-1.6069776947,0.5285786269
 H,0,-7.3502062021,-1.9302814985,1.580597338
 H,0,-8.221728548,-0.9210571379,0.4113520308
 H,0,-7.56469171,-2.4815530314,-0.1091745781
 C,0,-4.8203003747,-3.8115529577,-0.9291084749
 H,0,-3.9040054722,-3.5802263466,-1.4940227479
 H,0,-4.8483377452,-4.8986793965,-0.7532620743
 H,0,-5.6826188988,-3.5495453924,-1.5621112629
 Recover connectivity data from disk.
 ITRead=  0  0  0  0  0  0  0  0  0  0  0  0  0  0  0  0  0  0  0  0
 ITRead=  0  0  0  0  0  0  0  0  0  0  0  0  0  0  0  0  0  0  0  0
 ITRead=  0  0  0  0  0  0  0  0  0  0  0  0  0  0  0  0  0  0  0  0
 ITRead=  0  0  0  0
 MicOpt= -1 -1 -1 -1 -1 -1 -1 -1 -1 -1 -1 -1 -1 -1 -1 -1 -1 -1 -1 -1
 MicOpt= -1 -1 -1 -1 -1 -1 -1 -1 -1 -1 -1 -1 -1 -1 -1 -1 -1 -1 -1 -1
 MicOpt= -1 -1 -1 -1 -1 -1 -1 -1 -1 -1 -1 -1 -1 -1 -1 -1 -1 -1 -1 -1
 MicOpt= -1 -1 -1 -1
 NAtoms=     64 NQM=       64 NQMF=       0 NMMI=      0 NMMIF=      0
                NMic=       0 NMicF=      0.
                    Isotopes and Nuclear Properties:
 (Nuclear quadrupole moments (NQMom) in fm**2, nuclear magnetic moments (NMagM)
  in nuclear magnetons)

  Atom         1           2           3           4           5           6           7           8           9          10
 IAtWgt=          12          12          12          12          12          12          12          12          12          12
 AtmWgt=  12.0000000  12.0000000  12.0000000  12.0000000  12.0000000  12.0000000  12.0000000  12.0000000  12.0000000  12.0000000
 NucSpn=           0           0           0           0           0           0           0           0           0           0
 AtZEff=   3.6000000   3.6000000   3.6000000   3.6000000   3.6000000   3.6000000   3.6000000   3.6000000   3.6000000   3.6000000
 NQMom=    0.0000000   0.0000000   0.0000000   0.0000000   0.0000000   0.0000000   0.0000000   0.0000000   0.0000000   0.0000000
 NMagM=    0.0000000   0.0000000   0.0000000   0.0000000   0.0000000   0.0000000   0.0000000   0.0000000   0.0000000   0.0000000
 AtZNuc=   6.0000000   6.0000000   6.0000000   6.0000000   6.0000000   6.0000000   6.0000000   6.0000000   6.0000000   6.0000000

  Atom        11          12          13          14          15          16          17          18          19          20
 IAtWgt=           1          12          12          12           1           1           1           1           1          12
 AtmWgt=   1.0078250  12.0000000  12.0000000  12.0000000   1.0078250   1.0078250   1.0078250   1.0078250   1.0078250  12.0000000
 NucSpn=           1           0           0           0           1           1           1           1           1           0
 AtZEff=   1.0000000   3.6000000   3.6000000   3.6000000   1.0000000   1.0000000   1.0000000   1.0000000   1.0000000   3.6000000
 NQMom=    0.0000000   0.0000000   0.0000000   0.0000000   0.0000000   0.0000000   0.0000000   0.0000000   0.0000000   0.0000000
 NMagM=    2.7928460   0.0000000   0.0000000   0.0000000   2.7928460   2.7928460   2.7928460   2.7928460   2.7928460   0.0000000
 AtZNuc=   1.0000000   6.0000000   6.0000000   6.0000000   1.0000000   1.0000000   1.0000000   1.0000000   1.0000000   6.0000000

  Atom        21          22          23          24          25          26          27          28          29          30
 IAtWgt=          12          12          12          12           1          12           1           1           1          16
 AtmWgt=  12.0000000  12.0000000  12.0000000  12.0000000   1.0078250  12.0000000   1.0078250   1.0078250   1.0078250  15.9949146
 NucSpn=           0           0           0           0           1           0           1           1           1           0
 AtZEff=   3.6000000   3.6000000   3.6000000   3.6000000   1.0000000   3.6000000   1.0000000   1.0000000   1.0000000   5.6000000
 NQMom=    0.0000000   0.0000000   0.0000000   0.0000000   0.0000000   0.0000000   0.0000000   0.0000000   0.0000000   0.0000000
 NMagM=    0.0000000   0.0000000   0.0000000   0.0000000   2.7928460   0.0000000   2.7928460   2.7928460   2.7928460   0.0000000
 AtZNuc=   6.0000000   6.0000000   6.0000000   6.0000000   1.0000000   6.0000000   1.0000000   1.0000000   1.0000000   8.0000000

  Atom        31          32          33          34          35          36          37          38          39          40
 IAtWgt=          14          14          12          16          16           1          12           1           1          12
 AtmWgt=  14.0030740  14.0030740  12.0000000  15.9949146  15.9949146   1.0078250  12.0000000   1.0078250   1.0078250  12.0000000
 NucSpn=           2           2           0           0           0           1           0           1           1           0
 AtZEff=   4.5500000   4.5500000   3.6000000   5.6000000   5.6000000   1.0000000   3.6000000   1.0000000   1.0000000   3.6000000
 NQMom=    2.0440000   2.0440000   0.0000000   0.0000000   0.0000000   0.0000000   0.0000000   0.0000000   0.0000000   0.0000000
 NMagM=    0.4037610   0.4037610   0.0000000   0.0000000   0.0000000   2.7928460   0.0000000   2.7928460   2.7928460   0.0000000
 AtZNuc=   7.0000000   7.0000000   6.0000000   8.0000000   8.0000000   1.0000000   6.0000000   1.0000000   1.0000000   6.0000000

  Atom        41          42          43          44          45          46          47          48          49          50
 IAtWgt=           1           1           1          12           1           1          12           1           1           1
 AtmWgt=   1.0078250   1.0078250   1.0078250  12.0000000   1.0078250   1.0078250  12.0000000   1.0078250   1.0078250   1.0078250
 NucSpn=           1           1           1           0           1           1           0           1           1           1
 AtZEff=   1.0000000   1.0000000   1.0000000   3.6000000   1.0000000   1.0000000   3.6000000   1.0000000   1.0000000   1.0000000
 NQMom=    0.0000000   0.0000000   0.0000000   0.0000000   0.0000000   0.0000000   0.0000000   0.0000000   0.0000000   0.0000000
 NMagM=    2.7928460   2.7928460   2.7928460   0.0000000   2.7928460   2.7928460   0.0000000   2.7928460   2.7928460   2.7928460
 AtZNuc=   1.0000000   1.0000000   1.0000000   6.0000000   1.0000000   1.0000000   6.0000000   1.0000000   1.0000000   1.0000000

  Atom        51          52          53          54          55          56          57          58          59          60
 IAtWgt=          12           1           1          12           1           1          12           1           1           1
 AtmWgt=  12.0000000   1.0078250   1.0078250  12.0000000   1.0078250   1.0078250  12.0000000   1.0078250   1.0078250   1.0078250
 NucSpn=           0           1           1           0           1           1           0           1           1           1
 AtZEff=   3.6000000   1.0000000   1.0000000   3.6000000   1.0000000   1.0000000   3.6000000   1.0000000   1.0000000   1.0000000
 NQMom=    0.0000000   0.0000000   0.0000000   0.0000000   0.0000000   0.0000000   0.0000000   0.0000000   0.0000000   0.0000000
 NMagM=    0.0000000   2.7928460   2.7928460   0.0000000   2.7928460   2.7928460   0.0000000   2.7928460   2.7928460   2.7928460
 AtZNuc=   6.0000000   1.0000000   1.0000000   6.0000000   1.0000000   1.0000000   6.0000000   1.0000000   1.0000000   1.0000000

  Atom        61          62          63          64
 IAtWgt=          12           1           1           1
 AtmWgt=  12.0000000   1.0078250   1.0078250   1.0078250
 NucSpn=           0           1           1           1
 AtZEff=   3.6000000   1.0000000   1.0000000   1.0000000
 NQMom=    0.0000000   0.0000000   0.0000000   0.0000000
 NMagM=    0.0000000   2.7928460   2.7928460   2.7928460
 AtZNuc=   6.0000000   1.0000000   1.0000000   1.0000000
 Leave Link  101 at Fri Jun 11 02:24:31 2021, MaxMem=   134217728 cpu:               2.1 elap:               0.2
 (Enter /APL/ISV/x86_64/gaussian/16/C.01/g16/l103.exe)

 GradGradGradGradGradGradGradGradGradGradGradGradGradGradGradGradGradGrad
 Berny optimization.
 Initialization pass.
                           ----------------------------
                           !    Initial Parameters    !
                           ! (Angstroms and Degrees)  !
 --------------------------                            --------------------------
 ! Name  Definition              Value          Derivative Info.                !
 --------------------------------------------------------------------------------
 ! R1    R(1,2)                  1.422          estimate D2E/DX2                !
 ! R2    R(1,6)                  1.4421         estimate D2E/DX2                !
 ! R3    R(1,31)                 1.3611         estimate D2E/DX2                !
 ! R4    R(2,3)                  1.3817         estimate D2E/DX2                !
 ! R5    R(2,15)                 1.0863         estimate D2E/DX2                !
 ! R6    R(3,4)                  1.4261         estimate D2E/DX2                !
 ! R7    R(3,30)                 1.363          estimate D2E/DX2                !
 ! R8    R(4,5)                  1.4252         estimate D2E/DX2                !
 ! R9    R(4,7)                  1.4113         estimate D2E/DX2                !
 ! R10   R(5,6)                  1.3708         estimate D2E/DX2                !
 ! R11   R(5,16)                 1.0902         estimate D2E/DX2                !
 ! R12   R(6,17)                 1.0864         estimate D2E/DX2                !
 ! R13   R(7,8)                  1.4098         estimate D2E/DX2                !
 ! R14   R(7,20)                 1.498          estimate D2E/DX2                !
 ! R15   R(8,9)                  1.427          estimate D2E/DX2                !
 ! R16   R(8,14)                 1.4269         estimate D2E/DX2                !
 ! R17   R(9,10)                 1.3821         estimate D2E/DX2                !
 ! R18   R(9,30)                 1.3615         estimate D2E/DX2                !
 ! R19   R(10,11)                1.0868         estimate D2E/DX2                !
 ! R20   R(10,12)                1.4211         estimate D2E/DX2                !
 ! R21   R(12,13)                1.442          estimate D2E/DX2                !
 ! R22   R(12,32)                1.3575         estimate D2E/DX2                !
 ! R23   R(13,14)                1.3694         estimate D2E/DX2                !
 ! R24   R(13,18)                1.0873         estimate D2E/DX2                !
 ! R25   R(14,19)                1.0902         estimate D2E/DX2                !
 ! R26   R(20,21)                1.4147         estimate D2E/DX2                !
 ! R27   R(20,22)                1.4049         estimate D2E/DX2                !
 ! R28   R(21,23)                1.4052         estimate D2E/DX2                !
 ! R29   R(21,33)                1.4979         estimate D2E/DX2                !
 ! R30   R(22,24)                1.3968         estimate D2E/DX2                !
 ! R31   R(22,25)                1.0919         estimate D2E/DX2                !
 ! R32   R(23,26)                1.3926         estimate D2E/DX2                !
 ! R33   R(23,27)                1.0904         estimate D2E/DX2                !
 ! R34   R(24,26)                1.3971         estimate D2E/DX2                !
 ! R35   R(24,28)                1.0919         estimate D2E/DX2                !
 ! R36   R(26,29)                1.0914         estimate D2E/DX2                !
 ! R37   R(31,51)                1.4706         estimate D2E/DX2                !
 ! R38   R(31,54)                1.4827         estimate D2E/DX2                !
 ! R39   R(32,37)                1.4723         estimate D2E/DX2                !
 ! R40   R(32,44)                1.4708         estimate D2E/DX2                !
 ! R41   R(33,34)                1.2102         estimate D2E/DX2                !
 ! R42   R(33,35)                1.3546         estimate D2E/DX2                !
 ! R43   R(35,36)                0.9755         estimate D2E/DX2                !
 ! R44   R(37,38)                1.1003         estimate D2E/DX2                !
 ! R45   R(37,39)                1.0991         estimate D2E/DX2                !
 ! R46   R(37,40)                1.5302         estimate D2E/DX2                !
 ! R47   R(40,41)                1.1011         estimate D2E/DX2                !
 ! R48   R(40,42)                1.1014         estimate D2E/DX2                !
 ! R49   R(40,43)                1.1013         estimate D2E/DX2                !
 ! R50   R(44,45)                1.0997         estimate D2E/DX2                !
 ! R51   R(44,46)                1.1002         estimate D2E/DX2                !
 ! R52   R(44,47)                1.5307         estimate D2E/DX2                !
 ! R53   R(47,48)                1.1013         estimate D2E/DX2                !
 ! R54   R(47,49)                1.1009         estimate D2E/DX2                !
 ! R55   R(47,50)                1.1014         estimate D2E/DX2                !
 ! R56   R(51,52)                1.0952         estimate D2E/DX2                !
 ! R57   R(51,53)                1.0992         estimate D2E/DX2                !
 ! R58   R(51,61)                1.5316         estimate D2E/DX2                !
 ! R59   R(54,55)                1.1009         estimate D2E/DX2                !
 ! R60   R(54,56)                1.1052         estimate D2E/DX2                !
 ! R61   R(54,57)                1.5246         estimate D2E/DX2                !
 ! R62   R(57,58)                1.1007         estimate D2E/DX2                !
 ! R63   R(57,59)                1.1006         estimate D2E/DX2                !
 ! R64   R(57,60)                1.1            estimate D2E/DX2                !
 ! R65   R(61,62)                1.101          estimate D2E/DX2                !
 ! R66   R(61,63)                1.1016         estimate D2E/DX2                !
 ! R67   R(61,64)                1.1013         estimate D2E/DX2                !
 ! A1    A(2,1,6)              116.9322         estimate D2E/DX2                !
 ! A2    A(2,1,31)             122.0061         estimate D2E/DX2                !
 ! A3    A(6,1,31)             121.0617         estimate D2E/DX2                !
 ! A4    A(1,2,3)              120.4533         estimate D2E/DX2                !
 ! A5    A(1,2,15)             122.4137         estimate D2E/DX2                !
 ! A6    A(3,2,15)             117.133          estimate D2E/DX2                !
 ! A7    A(2,3,4)              123.1223         estimate D2E/DX2                !
 ! A8    A(2,3,30)             116.2195         estimate D2E/DX2                !
 ! A9    A(4,3,30)             120.6575         estimate D2E/DX2                !
 ! A10   A(3,4,5)              115.8641         estimate D2E/DX2                !
 ! A11   A(3,4,7)              119.4406         estimate D2E/DX2                !
 ! A12   A(5,4,7)              124.6953         estimate D2E/DX2                !
 ! A13   A(4,5,6)              122.0466         estimate D2E/DX2                !
 ! A14   A(4,5,16)             118.6251         estimate D2E/DX2                !
 ! A15   A(6,5,16)             119.3276         estimate D2E/DX2                !
 ! A16   A(1,6,5)              121.5623         estimate D2E/DX2                !
 ! A17   A(1,6,17)             120.22           estimate D2E/DX2                !
 ! A18   A(5,6,17)             118.2172         estimate D2E/DX2                !
 ! A19   A(4,7,8)              118.8123         estimate D2E/DX2                !
 ! A20   A(4,7,20)             120.494          estimate D2E/DX2                !
 ! A21   A(8,7,20)             120.5599         estimate D2E/DX2                !
 ! A22   A(7,8,9)              119.4268         estimate D2E/DX2                !
 ! A23   A(7,8,14)             124.6301         estimate D2E/DX2                !
 ! A24   A(9,8,14)             115.9414         estimate D2E/DX2                !
 ! A25   A(8,9,10)             123.0418         estimate D2E/DX2                !
 ! A26   A(8,9,30)             120.6982         estimate D2E/DX2                !
 ! A27   A(10,9,30)            116.2591         estimate D2E/DX2                !
 ! A28   A(9,10,11)            117.3961         estimate D2E/DX2                !
 ! A29   A(9,10,12)            120.3577         estimate D2E/DX2                !
 ! A30   A(11,10,12)           122.2373         estimate D2E/DX2                !
 ! A31   A(10,12,13)           117.1809         estimate D2E/DX2                !
 ! A32   A(10,12,32)           121.6588         estimate D2E/DX2                !
 ! A33   A(13,12,32)           121.16           estimate D2E/DX2                !
 ! A34   A(12,13,14)           121.4642         estimate D2E/DX2                !
 ! A35   A(12,13,18)           120.0115         estimate D2E/DX2                !
 ! A36   A(14,13,18)           118.5154         estimate D2E/DX2                !
 ! A37   A(8,14,13)            122.0135         estimate D2E/DX2                !
 ! A38   A(8,14,19)            118.5903         estimate D2E/DX2                !
 ! A39   A(13,14,19)           119.3948         estimate D2E/DX2                !
 ! A40   A(7,20,21)            124.5972         estimate D2E/DX2                !
 ! A41   A(7,20,22)            116.5607         estimate D2E/DX2                !
 ! A42   A(21,20,22)           118.8419         estimate D2E/DX2                !
 ! A43   A(20,21,23)           119.3289         estimate D2E/DX2                !
 ! A44   A(20,21,33)           125.3203         estimate D2E/DX2                !
 ! A45   A(23,21,33)           115.3508         estimate D2E/DX2                !
 ! A46   A(20,22,24)           121.1222         estimate D2E/DX2                !
 ! A47   A(20,22,25)           119.1379         estimate D2E/DX2                !
 ! A48   A(24,22,25)           119.7398         estimate D2E/DX2                !
 ! A49   A(21,23,26)           121.2303         estimate D2E/DX2                !
 ! A50   A(21,23,27)           117.5464         estimate D2E/DX2                !
 ! A51   A(26,23,27)           121.2233         estimate D2E/DX2                !
 ! A52   A(22,24,26)           119.9586         estimate D2E/DX2                !
 ! A53   A(22,24,28)           119.608          estimate D2E/DX2                !
 ! A54   A(26,24,28)           120.4334         estimate D2E/DX2                !
 ! A55   A(23,26,24)           119.5181         estimate D2E/DX2                !
 ! A56   A(23,26,29)           120.0575         estimate D2E/DX2                !
 ! A57   A(24,26,29)           120.4244         estimate D2E/DX2                !
 ! A58   A(3,30,9)             120.958          estimate D2E/DX2                !
 ! A59   A(1,31,51)            120.4711         estimate D2E/DX2                !
 ! A60   A(1,31,54)            119.2997         estimate D2E/DX2                !
 ! A61   A(51,31,54)           119.6667         estimate D2E/DX2                !
 ! A62   A(12,32,37)           122.4796         estimate D2E/DX2                !
 ! A63   A(12,32,44)           121.9036         estimate D2E/DX2                !
 ! A64   A(37,32,44)           115.6167         estimate D2E/DX2                !
 ! A65   A(21,33,34)           123.9176         estimate D2E/DX2                !
 ! A66   A(21,33,35)           113.877          estimate D2E/DX2                !
 ! A67   A(34,33,35)           122.2054         estimate D2E/DX2                !
 ! A68   A(33,35,36)           105.7282         estimate D2E/DX2                !
 ! A69   A(32,37,38)           106.7002         estimate D2E/DX2                !
 ! A70   A(32,37,39)           109.2929         estimate D2E/DX2                !
 ! A71   A(32,37,40)           113.5911         estimate D2E/DX2                !
 ! A72   A(38,37,39)           105.7311         estimate D2E/DX2                !
 ! A73   A(38,37,40)           110.0501         estimate D2E/DX2                !
 ! A74   A(39,37,40)           111.0911         estimate D2E/DX2                !
 ! A75   A(37,40,41)           111.6174         estimate D2E/DX2                !
 ! A76   A(37,40,42)           111.2951         estimate D2E/DX2                !
 ! A77   A(37,40,43)           109.9139         estimate D2E/DX2                !
 ! A78   A(41,40,42)           107.8946         estimate D2E/DX2                !
 ! A79   A(41,40,43)           108.1501         estimate D2E/DX2                !
 ! A80   A(42,40,43)           107.8332         estimate D2E/DX2                !
 ! A81   A(32,44,45)           109.0974         estimate D2E/DX2                !
 ! A82   A(32,44,46)           106.8547         estimate D2E/DX2                !
 ! A83   A(32,44,47)           113.5802         estimate D2E/DX2                !
 ! A84   A(45,44,46)           105.8717         estimate D2E/DX2                !
 ! A85   A(45,44,47)           111.0402         estimate D2E/DX2                !
 ! A86   A(46,44,47)           110.0306         estimate D2E/DX2                !
 ! A87   A(44,47,48)           109.8986         estimate D2E/DX2                !
 ! A88   A(44,47,49)           111.6488         estimate D2E/DX2                !
 ! A89   A(44,47,50)           111.2546         estimate D2E/DX2                !
 ! A90   A(48,47,49)           108.1717         estimate D2E/DX2                !
 ! A91   A(48,47,50)           107.8277         estimate D2E/DX2                !
 ! A92   A(49,47,50)           107.9038         estimate D2E/DX2                !
 ! A93   A(31,51,52)           107.8777         estimate D2E/DX2                !
 ! A94   A(31,51,53)           108.4607         estimate D2E/DX2                !
 ! A95   A(31,51,61)           113.8024         estimate D2E/DX2                !
 ! A96   A(52,51,53)           105.3855         estimate D2E/DX2                !
 ! A97   A(52,51,61)           110.0426         estimate D2E/DX2                !
 ! A98   A(53,51,61)           110.8859         estimate D2E/DX2                !
 ! A99   A(31,54,55)           107.6665         estimate D2E/DX2                !
 ! A100  A(31,54,56)           108.918          estimate D2E/DX2                !
 ! A101  A(31,54,57)           115.763          estimate D2E/DX2                !
 ! A102  A(55,54,56)           106.8446         estimate D2E/DX2                !
 ! A103  A(55,54,57)           107.9944         estimate D2E/DX2                !
 ! A104  A(56,54,57)           109.2869         estimate D2E/DX2                !
 ! A105  A(54,57,58)           112.2719         estimate D2E/DX2                !
 ! A106  A(54,57,59)           107.7859         estimate D2E/DX2                !
 ! A107  A(54,57,60)           113.0566         estimate D2E/DX2                !
 ! A108  A(58,57,59)           107.3429         estimate D2E/DX2                !
 ! A109  A(58,57,60)           108.8835         estimate D2E/DX2                !
 ! A110  A(59,57,60)           107.2144         estimate D2E/DX2                !
 ! A111  A(51,61,62)           111.7483         estimate D2E/DX2                !
 ! A112  A(51,61,63)           109.8833         estimate D2E/DX2                !
 ! A113  A(51,61,64)           111.2674         estimate D2E/DX2                !
 ! A114  A(62,61,63)           108.0847         estimate D2E/DX2                !
 ! A115  A(62,61,64)           107.8623         estimate D2E/DX2                !
 ! A116  A(63,61,64)           107.8539         estimate D2E/DX2                !
 ! D1    D(6,1,2,3)              1.614          estimate D2E/DX2                !
 ! D2    D(6,1,2,15)          -178.3632         estimate D2E/DX2                !
 ! D3    D(31,1,2,3)          -178.288          estimate D2E/DX2                !
 ! D4    D(31,1,2,15)            1.7347         estimate D2E/DX2                !
 ! D5    D(2,1,6,5)             -1.4381         estimate D2E/DX2                !
 ! D6    D(2,1,6,17)           178.3203         estimate D2E/DX2                !
 ! D7    D(31,1,6,5)           178.4649         estimate D2E/DX2                !
 ! D8    D(31,1,6,17)           -1.7767         estimate D2E/DX2                !
 ! D9    D(2,1,31,51)           -5.6621         estimate D2E/DX2                !
 ! D10   D(2,1,31,54)         -177.0339         estimate D2E/DX2                !
 ! D11   D(6,1,31,51)          174.4399         estimate D2E/DX2                !
 ! D12   D(6,1,31,54)            3.0681         estimate D2E/DX2                !
 ! D13   D(1,2,3,4)             -0.8651         estimate D2E/DX2                !
 ! D14   D(1,2,3,30)           179.4233         estimate D2E/DX2                !
 ! D15   D(15,2,3,4)           179.1133         estimate D2E/DX2                !
 ! D16   D(15,2,3,30)           -0.5984         estimate D2E/DX2                !
 ! D17   D(2,3,4,5)             -0.1497         estimate D2E/DX2                !
 ! D18   D(2,3,4,7)            179.8604         estimate D2E/DX2                !
 ! D19   D(30,3,4,5)           179.5496         estimate D2E/DX2                !
 ! D20   D(30,3,4,7)            -0.4403         estimate D2E/DX2                !
 ! D21   D(2,3,30,9)           179.7618         estimate D2E/DX2                !
 ! D22   D(4,3,30,9)             0.0425         estimate D2E/DX2                !
 ! D23   D(3,4,5,6)              0.3462         estimate D2E/DX2                !
 ! D24   D(3,4,5,16)          -179.3513         estimate D2E/DX2                !
 ! D25   D(7,4,5,6)           -179.6646         estimate D2E/DX2                !
 ! D26   D(7,4,5,16)             0.6379         estimate D2E/DX2                !
 ! D27   D(3,4,7,8)              0.8882         estimate D2E/DX2                !
 ! D28   D(3,4,7,20)           176.7068         estimate D2E/DX2                !
 ! D29   D(5,4,7,8)           -179.1006         estimate D2E/DX2                !
 ! D30   D(5,4,7,20)            -3.282          estimate D2E/DX2                !
 ! D31   D(4,5,6,1)              0.4679         estimate D2E/DX2                !
 ! D32   D(4,5,6,17)          -179.2952         estimate D2E/DX2                !
 ! D33   D(16,5,6,1)          -179.8367         estimate D2E/DX2                !
 ! D34   D(16,5,6,17)            0.4003         estimate D2E/DX2                !
 ! D35   D(4,7,8,9)             -0.9502         estimate D2E/DX2                !
 ! D36   D(4,7,8,14)           179.5507         estimate D2E/DX2                !
 ! D37   D(20,7,8,9)          -176.766          estimate D2E/DX2                !
 ! D38   D(20,7,8,14)            3.735          estimate D2E/DX2                !
 ! D39   D(4,7,20,21)           91.2879         estimate D2E/DX2                !
 ! D40   D(4,7,20,22)          -88.5359         estimate D2E/DX2                !
 ! D41   D(8,7,20,21)          -92.967          estimate D2E/DX2                !
 ! D42   D(8,7,20,22)           87.2092         estimate D2E/DX2                !
 ! D43   D(7,8,9,10)          -179.7976         estimate D2E/DX2                !
 ! D44   D(7,8,9,30)             0.5693         estimate D2E/DX2                !
 ! D45   D(14,8,9,10)           -0.256          estimate D2E/DX2                !
 ! D46   D(14,8,9,30)         -179.8891         estimate D2E/DX2                !
 ! D47   D(7,8,14,13)          179.6724         estimate D2E/DX2                !
 ! D48   D(7,8,14,19)            0.1099         estimate D2E/DX2                !
 ! D49   D(9,8,14,13)            0.1576         estimate D2E/DX2                !
 ! D50   D(9,8,14,19)         -179.4049         estimate D2E/DX2                !
 ! D51   D(8,9,10,11)         -178.7366         estimate D2E/DX2                !
 ! D52   D(8,9,10,12)            0.2055         estimate D2E/DX2                !
 ! D53   D(30,9,10,11)           0.9117         estimate D2E/DX2                !
 ! D54   D(30,9,10,12)         179.8537         estimate D2E/DX2                !
 ! D55   D(8,9,30,3)            -0.107          estimate D2E/DX2                !
 ! D56   D(10,9,30,3)         -179.7641         estimate D2E/DX2                !
 ! D57   D(9,10,12,13)          -0.0463         estimate D2E/DX2                !
 ! D58   D(9,10,12,32)         179.7588         estimate D2E/DX2                !
 ! D59   D(11,10,12,13)        178.8432         estimate D2E/DX2                !
 ! D60   D(11,10,12,32)         -1.3516         estimate D2E/DX2                !
 ! D61   D(10,12,13,14)         -0.0471         estimate D2E/DX2                !
 ! D62   D(10,12,13,18)        178.8578         estimate D2E/DX2                !
 ! D63   D(32,12,13,14)       -179.8533         estimate D2E/DX2                !
 ! D64   D(32,12,13,18)         -0.9484         estimate D2E/DX2                !
 ! D65   D(10,12,32,37)        175.9946         estimate D2E/DX2                !
 ! D66   D(10,12,32,44)         -3.8678         estimate D2E/DX2                !
 ! D67   D(13,12,32,37)         -4.2079         estimate D2E/DX2                !
 ! D68   D(13,12,32,44)        175.9297         estimate D2E/DX2                !
 ! D69   D(12,13,14,8)          -0.0134         estimate D2E/DX2                !
 ! D70   D(12,13,14,19)        179.5457         estimate D2E/DX2                !
 ! D71   D(18,13,14,8)        -178.9342         estimate D2E/DX2                !
 ! D72   D(18,13,14,19)          0.6248         estimate D2E/DX2                !
 ! D73   D(7,20,21,23)        -179.7604         estimate D2E/DX2                !
 ! D74   D(7,20,21,33)           0.314          estimate D2E/DX2                !
 ! D75   D(22,20,21,23)          0.0596         estimate D2E/DX2                !
 ! D76   D(22,20,21,33)       -179.866          estimate D2E/DX2                !
 ! D77   D(7,20,22,24)         179.7918         estimate D2E/DX2                !
 ! D78   D(7,20,22,25)          -0.1431         estimate D2E/DX2                !
 ! D79   D(21,20,22,24)         -0.0426         estimate D2E/DX2                !
 ! D80   D(21,20,22,25)       -179.9775         estimate D2E/DX2                !
 ! D81   D(20,21,23,26)         -0.0374         estimate D2E/DX2                !
 ! D82   D(20,21,23,27)        179.978          estimate D2E/DX2                !
 ! D83   D(33,21,23,26)        179.8954         estimate D2E/DX2                !
 ! D84   D(33,21,23,27)         -0.0892         estimate D2E/DX2                !
 ! D85   D(20,21,33,34)       -179.4032         estimate D2E/DX2                !
 ! D86   D(20,21,33,35)          0.6786         estimate D2E/DX2                !
 ! D87   D(23,21,33,34)          0.6686         estimate D2E/DX2                !
 ! D88   D(23,21,33,35)       -179.2496         estimate D2E/DX2                !
 ! D89   D(20,22,24,26)          0.0019         estimate D2E/DX2                !
 ! D90   D(20,22,24,28)       -179.9836         estimate D2E/DX2                !
 ! D91   D(25,22,24,26)        179.9364         estimate D2E/DX2                !
 ! D92   D(25,22,24,28)         -0.0491         estimate D2E/DX2                !
 ! D93   D(21,23,26,24)         -0.0036         estimate D2E/DX2                !
 ! D94   D(21,23,26,29)       -179.9933         estimate D2E/DX2                !
 ! D95   D(27,23,26,24)        179.9805         estimate D2E/DX2                !
 ! D96   D(27,23,26,29)         -0.0093         estimate D2E/DX2                !
 ! D97   D(22,24,26,23)          0.0216         estimate D2E/DX2                !
 ! D98   D(22,24,26,29)       -179.9887         estimate D2E/DX2                !
 ! D99   D(28,24,26,23)       -179.9931         estimate D2E/DX2                !
 ! D100  D(28,24,26,29)         -0.0034         estimate D2E/DX2                !
 ! D101  D(1,31,51,52)         155.5677         estimate D2E/DX2                !
 ! D102  D(1,31,51,53)          41.8909         estimate D2E/DX2                !
 ! D103  D(1,31,51,61)         -82.0297         estimate D2E/DX2                !
 ! D104  D(54,31,51,52)        -33.0921         estimate D2E/DX2                !
 ! D105  D(54,31,51,53)       -146.7689         estimate D2E/DX2                !
 ! D106  D(54,31,51,61)         89.3105         estimate D2E/DX2                !
 ! D107  D(1,31,54,55)         -51.1278         estimate D2E/DX2                !
 ! D108  D(1,31,54,56)          64.3805         estimate D2E/DX2                !
 ! D109  D(1,31,54,57)        -172.0392         estimate D2E/DX2                !
 ! D110  D(51,31,54,55)        137.43           estimate D2E/DX2                !
 ! D111  D(51,31,54,56)       -107.0617         estimate D2E/DX2                !
 ! D112  D(51,31,54,57)         16.5186         estimate D2E/DX2                !
 ! D113  D(12,32,37,38)       -149.8376         estimate D2E/DX2                !
 ! D114  D(12,32,37,39)        -35.9511         estimate D2E/DX2                !
 ! D115  D(12,32,37,40)         88.7227         estimate D2E/DX2                !
 ! D116  D(44,32,37,38)         30.0328         estimate D2E/DX2                !
 ! D117  D(44,32,37,39)        143.9193         estimate D2E/DX2                !
 ! D118  D(44,32,37,40)        -91.4069         estimate D2E/DX2                !
 ! D119  D(12,32,44,45)        -36.3987         estimate D2E/DX2                !
 ! D120  D(12,32,44,46)       -150.4339         estimate D2E/DX2                !
 ! D121  D(12,32,44,47)         88.0501         estimate D2E/DX2                !
 ! D122  D(37,32,44,45)        143.73           estimate D2E/DX2                !
 ! D123  D(37,32,44,46)         29.6949         estimate D2E/DX2                !
 ! D124  D(37,32,44,47)        -91.8212         estimate D2E/DX2                !
 ! D125  D(21,33,35,36)       -179.9716         estimate D2E/DX2                !
 ! D126  D(34,33,35,36)          0.1086         estimate D2E/DX2                !
 ! D127  D(32,37,40,41)        -62.3034         estimate D2E/DX2                !
 ! D128  D(32,37,40,42)         58.307          estimate D2E/DX2                !
 ! D129  D(32,37,40,43)        177.7002         estimate D2E/DX2                !
 ! D130  D(38,37,40,41)        178.1467         estimate D2E/DX2                !
 ! D131  D(38,37,40,42)        -61.2429         estimate D2E/DX2                !
 ! D132  D(38,37,40,43)         58.1503         estimate D2E/DX2                !
 ! D133  D(39,37,40,41)         61.3967         estimate D2E/DX2                !
 ! D134  D(39,37,40,42)       -177.9929         estimate D2E/DX2                !
 ! D135  D(39,37,40,43)        -58.5997         estimate D2E/DX2                !
 ! D136  D(32,44,47,48)        178.2085         estimate D2E/DX2                !
 ! D137  D(32,44,47,49)        -61.7579         estimate D2E/DX2                !
 ! D138  D(32,44,47,50)         58.8578         estimate D2E/DX2                !
 ! D139  D(45,44,47,48)        -58.3981         estimate D2E/DX2                !
 ! D140  D(45,44,47,49)         61.6354         estimate D2E/DX2                !
 ! D141  D(45,44,47,50)       -177.7488         estimate D2E/DX2                !
 ! D142  D(46,44,47,48)         58.4821         estimate D2E/DX2                !
 ! D143  D(46,44,47,49)        178.5157         estimate D2E/DX2                !
 ! D144  D(46,44,47,50)        -60.8686         estimate D2E/DX2                !
 ! D145  D(31,51,61,62)         60.1099         estimate D2E/DX2                !
 ! D146  D(31,51,61,63)       -179.9116         estimate D2E/DX2                !
 ! D147  D(31,51,61,64)        -60.5301         estimate D2E/DX2                !
 ! D148  D(52,51,61,62)       -178.687          estimate D2E/DX2                !
 ! D149  D(52,51,61,63)        -58.7085         estimate D2E/DX2                !
 ! D150  D(52,51,61,64)         60.673          estimate D2E/DX2                !
 ! D151  D(53,51,61,62)        -62.4885         estimate D2E/DX2                !
 ! D152  D(53,51,61,63)         57.49           estimate D2E/DX2                !
 ! D153  D(53,51,61,64)        176.8715         estimate D2E/DX2                !
 ! D154  D(31,54,57,58)         59.9034         estimate D2E/DX2                !
 ! D155  D(31,54,57,59)        177.9166         estimate D2E/DX2                !
 ! D156  D(31,54,57,60)        -63.7677         estimate D2E/DX2                !
 ! D157  D(55,54,57,58)        -60.8312         estimate D2E/DX2                !
 ! D158  D(55,54,57,59)         57.182          estimate D2E/DX2                !
 ! D159  D(55,54,57,60)        175.4977         estimate D2E/DX2                !
 ! D160  D(56,54,57,58)       -176.7095         estimate D2E/DX2                !
 ! D161  D(56,54,57,59)        -58.6963         estimate D2E/DX2                !
 ! D162  D(56,54,57,60)         59.6194         estimate D2E/DX2                !
 --------------------------------------------------------------------------------
 Trust Radius=3.00D-01 FncErr=1.00D-07 GrdErr=1.00D-06 EigMax=2.50D+02 EigMin=1.00D-04
 Number of steps in this run=     20 maximum allowed number of steps=    384.
 GradGradGradGradGradGradGradGradGradGradGradGradGradGradGradGradGradGrad

 Leave Link  103 at Fri Jun 11 02:24:31 2021, MaxMem=   134217728 cpu:               0.2 elap:               0.0
 (Enter /APL/ISV/x86_64/gaussian/16/C.01/g16/l202.exe)
 Stoichiometry    C28H31N2O3(1+)
 Framework group  C1[X(C28H31N2O3)]
 Deg. of freedom   186
 Full point group                 C1      NOp   1
 RotChk:  IX=0 Diff= 5.63D-16
 Largest Abelian subgroup         C1      NOp   1
 Largest concise Abelian subgroup C1      NOp   1
                         Standard orientation:                         
 ---------------------------------------------------------------------
 Center     Atomic      Atomic             Coordinates (Angstroms)
 Number     Number       Type             X           Y           Z
 ---------------------------------------------------------------------
      1          6           0       -3.644929   -0.971952    0.091979
      2          6           0       -2.391377   -1.640575    0.151743
      3          6           0       -1.213016   -0.933543    0.007968
      4          6           0       -1.171460    0.473230   -0.222229
      5          6           0       -2.434910    1.127807   -0.301618
      6          6           0       -3.616563    0.447997   -0.158159
      7          6           0        0.076983    1.117903   -0.354511
      8          6           0        1.253002    0.344546   -0.273494
      9          6           0        1.153929   -1.059867   -0.040602
     10          6           0        2.256713   -1.887343    0.056202
     11          1           0        2.074449   -2.947018    0.214099
     12          6           0        3.567908   -1.354534   -0.072022
     13          6           0        3.682689    0.063954   -0.304388
     14          6           0        2.575769    0.864711   -0.398703
     15          1           0       -2.310009   -2.712338    0.309216
     16          1           0       -2.455920    2.201885   -0.487213
     17          1           0       -4.544249    1.007152   -0.241627
     18          1           0        4.664425    0.523144   -0.391087
     19          1           0        2.701927    1.934300   -0.567528
     20          6           0        0.147546    2.580637   -0.669604
     21          6           0        0.205369    3.609326    0.299900
     22          6           0        0.151714    2.930656   -2.030162
     23          6           0        0.263954    4.948906   -0.120537
     24          6           0        0.210714    4.267185   -2.431592
     25          1           0        0.106858    2.140591   -2.782537
     26          6           0        0.266899    5.281799   -1.472794
     27          1           0        0.307287    5.718193    0.651072
     28          1           0        0.212310    4.511238   -3.495873
     29          1           0        0.313011    6.328668   -1.777957
     30          8           0       -0.061731   -1.658388    0.091892
     31          7           0       -4.823209   -1.631438    0.263517
     32          7           0        4.669511   -2.142105    0.023348
     33          6           0        0.211971    3.401855    1.783372
     34          8           0        0.251666    4.302262    2.590982
     35          8           0        0.170866    2.099921    2.155118
     36          1           0        0.179516    2.103046    3.130546
     37          6           0        6.031446   -1.625916   -0.191674
     38          1           0        6.626145   -2.460250   -0.592719
     39          1           0        6.010687   -0.866109   -0.985599
     40          6           0        6.686154   -1.077774    1.078096
     41          1           0        6.128879   -0.219072    1.483569
     42          1           0        6.740886   -1.847387    1.864156
     43          1           0        7.713295   -0.747053    0.857773
     44          6           0        4.575828   -3.573789    0.347048
     45          1           0        3.763299   -3.726287    1.072202
     46          1           0        5.503511   -3.843152    0.873580
     47          6           0        4.391374   -4.468468   -0.881162
     48          1           0        4.360844   -5.525587   -0.573692
     49          1           0        3.455863   -4.238771   -1.414155
     50          1           0        5.224247   -4.347876   -1.591681
     51          6           0       -4.845710   -3.095864    0.396354
     52          1           0       -5.754558   -3.369985    0.942527
     53          1           0       -4.012433   -3.399294    1.045868
     54          6           0       -6.098148   -0.887586    0.123432
     55          1           0       -6.033267    0.009216    0.758704
     56          1           0       -6.194520   -0.534937   -0.919578
     57          6           0       -7.357792   -1.651989    0.514971
     58          1           0       -7.338740   -1.976819    1.566515
     59          1           0       -8.214447   -0.971066    0.397406
     60          1           0       -7.547108   -2.526734   -0.124463
     61          6           0       -4.793362   -3.838791   -0.941939
     62          1           0       -3.877562   -3.601031   -1.504981
     63          1           0       -4.815096   -4.926341   -0.767831
     64          1           0       -5.656215   -3.581024   -1.575954
 ---------------------------------------------------------------------
 Rotational constants (GHZ):           0.1407209           0.0845160           0.0587368
 Leave Link  202 at Fri Jun 11 02:24:31 2021, MaxMem=   134217728 cpu:               0.1 elap:               0.0
 (Enter /APL/ISV/x86_64/gaussian/16/C.01/g16/l301.exe)
 Standard basis: CC-pVDZ (5D, 7F)
 Ernie: Thresh=  0.10000D-02 Tol=  0.10000D-05 Strict=F.
 Ernie:  66 primitive shells out of 881 were deleted.
 There are   650 symmetry adapted cartesian basis functions of A   symmetry.
 There are   617 symmetry adapted basis functions of A   symmetry.
   617 basis functions,  1306 primitive gaussians,   650 cartesian basis functions
   118 alpha electrons      118 beta electrons
       nuclear repulsion energy      3293.3957800583 Hartrees.
 IExCor=  402 DFT=T Ex+Corr=B3LYP ExCW=0 ScaHFX=  0.200000
 ScaDFX=  0.800000  0.720000  1.000000  0.810000 ScalE2=  1.000000  1.000000
 IRadAn=      5 IRanWt=     -1 IRanGd=            0 ICorTp=0 IEmpDi=  4
 NAtoms=   64 NActive=   64 NUniq=   64 SFac= 1.00D+00 NAtFMM=   60 NAOKFM=T Big=T
 Integral buffers will be    131072 words long.
 Regular integral format.
 Two-electron integral symmetry is turned on.
 Leave Link  301 at Fri Jun 11 02:24:31 2021, MaxMem=   134217728 cpu:               0.8 elap:               0.1
 (Enter /APL/ISV/x86_64/gaussian/16/C.01/g16/l302.exe)
 NPDir=0 NMtPBC=     1 NCelOv=     1 NCel=       1 NClECP=     1 NCelD=      1
         NCelK=      1 NCelE2=     1 NClLst=     1 CellRange=     0.0.
 One-electron integrals computed using PRISM.
 One-electron integral symmetry used in STVInt
 NBasis=   617 RedAO= T EigKep=  1.67D-04  NBF=   617
 NBsUse=   617 1.00D-06 EigRej= -1.00D+00 NBFU=   617
 Precomputing XC quadrature grid using
 IXCGrd= 4 IRadAn=           5 IRanWt=          -1 IRanGd=           0 AccXCQ= 0.00D+00.
 Generated NRdTot=       0 NPtTot=           0 NUsed=           0 NTot=          32
 NSgBfM=   638   638   638   638   638 MxSgAt=    64 MxSgA2=    64.
 Leave Link  302 at Fri Jun 11 02:24:32 2021, MaxMem=   134217728 cpu:              13.9 elap:               0.9
 (Enter /APL/ISV/x86_64/gaussian/16/C.01/g16/l303.exe)
 DipDrv:  MaxL=1.
 Leave Link  303 at Fri Jun 11 02:24:32 2021, MaxMem=   134217728 cpu:               1.7 elap:               0.1
 (Enter /APL/ISV/x86_64/gaussian/16/C.01/g16/l308.exe)
 Leave Link  308 at Fri Jun 11 02:24:33 2021, MaxMem=   134217728 cpu:               2.2 elap:               0.2
 (Enter /APL/ISV/x86_64/gaussian/16/C.01/g16/l401.exe)
 Initial guess from the checkpoint file:  "rhodamine2_tddft_opt.chk"
 B after Tr=    -0.000000    0.000000   -0.000000
         Rot=    1.000000    0.000000    0.000000    0.000000 Ang=   0.00 deg.
 Guess basis will be translated and rotated to current coordinates.
 JPrj=2 DoOrth=T DoCkMO=T.
 Leave Link  401 at Fri Jun 11 02:24:33 2021, MaxMem=   134217728 cpu:               8.0 elap:               0.5
 (Enter /APL/ISV/x86_64/gaussian/16/C.01/g16/l502.exe)
 Integral symmetry usage will be decided dynamically.
 Closed shell SCF:
 Using DIIS extrapolation, IDIIS=  1040.
 NGot=   134217728 LenX=   133353898 LenY=   132930748
 Requested convergence on RMS density matrix=1.00D-08 within 128 cycles.
 Requested convergence on MAX density matrix=1.00D-06.
 Requested convergence on             energy=1.00D-06.
 No special actions if energy rises.
 Fock matrices will be formed incrementally for  20 cycles.

 Cycle   1  Pass 1  IDiag  1:
 FoFJK:  IHMeth= 1 ICntrl=       0 DoSepK=F KAlg= 0 I1Cent=           0 FoldK=F
 IRaf= 990000000 NMat=       1 IRICut=       1 DoRegI=T DoRafI=F ISym2E= 0 IDoP0=0 IntGTp=1.
 FoFCou: FMM=T IPFlag=           0 FMFlag=      100000 FMFlg1=        2001
         NFxFlg=           0 DoJE=F BraDBF=F KetDBF=F FulRan=T
         wScrn=  0.000000 ICntrl=         0 IOpCl=  0 I1Cent=           0 NGrid=           0
         NMat0=    1 NMatS0=      1 NMatT0=    0 NMatD0=    1 NMtDS0=    0 NMtDT0=    0
 Symmetry not used in FoFCou.
 FMM levels:  10  Number of levels for PrismC:   9
 E= -1420.73821901315    
 DIIS: error= 4.00D-08 at cycle   1 NSaved=   1.
 NSaved= 1 IEnMin= 1 EnMin= -1420.73821901315     IErMin= 1 ErrMin= 4.00D-08
 ErrMax= 4.00D-08  0.00D+00 EMaxC= 1.00D-01 BMatC= 9.49D-13 BMatP= 9.49D-13
 IDIUse=1 WtCom= 1.00D+00 WtEn= 0.00D+00
 Coeff-Com:  0.100D+01
 Coeff:      0.100D+01
 Gap=     0.104 Goal=   None    Shift=    0.000
 RMSDP=5.45D-09 MaxDP=3.98D-07              OVMax= 7.51D-07

 SCF Done:  E(RB3LYP) =  -1420.73821901     A.U. after    1 cycles
            NFock=  1  Conv=0.54D-08     -V/T= 2.0070
 KE= 1.410811017279D+03 PE=-9.862922101926D+03 EE= 3.737977085576D+03
 Leave Link  502 at Fri Jun 11 02:24:44 2021, MaxMem=   134217728 cpu:             167.3 elap:              10.5
 (Enter /APL/ISV/x86_64/gaussian/16/C.01/g16/l801.exe)
 DoSCS=F DFT=T ScalE2(SS,OS)=  1.000000  1.000000
 ExpMin= 1.22D-01 ExpMax= 1.17D+04 ExpMxC= 4.01D+02 IAcc=3 IRadAn=         5 AccDes= 0.00D+00
 HarFok:  IExCor=  205 AccDes= 0.00D+00 IRadAn=         5 IDoV=-2 UseB2=F ITyADJ=14
 ICtDFT= 12500011 ScaDFX=  1.000000  1.000000  1.000000  1.000000
 GSVD:  LWork=       -1353 too small for GESVD, short by        5940 words or        5940 for optimal perf.
 Largest valence mixing into a core orbital is  3.98D-05
 Largest core mixing into a valence orbital is  2.49D-05
 Range of M.O.s used for correlation:    34   617
 NBasis=   617 NAE=   118 NBE=   118 NFC=    33 NFV=     0
 NROrb=    584 NOA=    85 NOB=    85 NVA=   499 NVB=   499

 **** Warning!!: The largest alpha MO coefficient is  0.10964213D+02

 Leave Link  801 at Fri Jun 11 02:24:44 2021, MaxMem=   134217728 cpu:               2.3 elap:               0.2
 (Enter /APL/ISV/x86_64/gaussian/16/C.01/g16/l914.exe)
 RHF ground state
 Two-electron integrals replicated using symmetry.
 MDV=   134217728 DFT=T DoStab=F Mixed=T DoRPA=T DoScal=F NonHer=T
 Making orbital integer symmetry assigments:
 Orbital symmetries:
       Occupied  (A) (A) (A) (A) (A) (A) (A) (A) (A) (A) (A) (A)
                 (A) (A) (A) (A) (A) (A) (A) (A) (A) (A) (A) (A)
                 (A) (A) (A) (A) (A) (A) (A) (A) (A) (A) (A) (A)
                 (A) (A) (A) (A) (A) (A) (A) (A) (A) (A) (A) (A)
                 (A) (A) (A) (A) (A) (A) (A) (A) (A) (A) (A) (A)
                 (A) (A) (A) (A) (A) (A) (A) (A) (A) (A) (A) (A)
                 (A) (A) (A) (A) (A) (A) (A) (A) (A) (A) (A) (A)
                 (A) (A) (A) (A) (A) (A) (A) (A) (A) (A) (A) (A)
                 (A) (A) (A) (A) (A) (A) (A) (A) (A) (A) (A) (A)
                 (A) (A) (A) (A) (A) (A) (A) (A) (A) (A)
       Virtual   (A) (A) (A) (A) (A) (A) (A) (A) (A) (A) (A) (A)
                 (A) (A) (A) (A) (A) (A) (A) (A) (A) (A) (A) (A)
                 (A) (A) (A) (A) (A) (A) (A) (A) (A) (A) (A) (A)
                 (A) (A) (A) (A) (A) (A) (A) (A) (A) (A) (A) (A)
                 (A) (A) (A) (A) (A) (A) (A) (A) (A) (A) (A) (A)
                 (A) (A) (A) (A) (A) (A) (A) (A) (A) (A) (A) (A)
                 (A) (A) (A) (A) (A) (A) (A) (A) (A) (A) (A) (A)
                 (A) (A) (A) (A) (A) (A) (A) (A) (A) (A) (A) (A)
                 (A) (A) (A) (A) (A) (A) (A) (A) (A) (A) (A) (A)
                 (A) (A) (A) (A) (A) (A) (A) (A) (A) (A) (A) (A)
                 (A) (A) (A) (A) (A) (A) (A) (A) (A) (A) (A) (A)
                 (A) (A) (A) (A) (A) (A) (A) (A) (A) (A) (A) (A)
                 (A) (A) (A) (A) (A) (A) (A) (A) (A) (A) (A) (A)
                 (A) (A) (A) (A) (A) (A) (A) (A) (A) (A) (A) (A)
                 (A) (A) (A) (A) (A) (A) (A) (A) (A) (A) (A) (A)
                 (A) (A) (A) (A) (A) (A) (A) (A) (A) (A) (A) (A)
                 (A) (A) (A) (A) (A) (A) (A) (A) (A) (A) (A) (A)
                 (A) (A) (A) (A) (A) (A) (A) (A) (A) (A) (A) (A)
                 (A) (A) (A) (A) (A) (A) (A) (A) (A) (A) (A) (A)
                 (A) (A) (A) (A) (A) (A) (A) (A) (A) (A) (A) (A)
                 (A) (A) (A) (A) (A) (A) (A) (A) (A) (A) (A) (A)
                 (A) (A) (A) (A) (A) (A) (A) (A) (A) (A) (A) (A)
                 (A) (A) (A) (A) (A) (A) (A) (A) (A) (A) (A) (A)
                 (A) (A) (A) (A) (A) (A) (A) (A) (A) (A) (A) (A)
                 (A) (A) (A) (A) (A) (A) (A) (A) (A) (A) (A) (A)
                 (A) (A) (A) (A) (A) (A) (A) (A) (A) (A) (A) (A)
                 (A) (A) (A) (A) (A) (A) (A) (A) (A) (A) (A) (A)
                 (A) (A) (A) (A) (A) (A) (A) (A) (A) (A) (A) (A)
                 (A) (A) (A) (A) (A) (A) (A) (A) (A) (A) (A) (A)
                 (A) (A) (A) (A) (A) (A) (A) (A) (A) (A) (A) (A)
                 (A) (A) (A) (A) (A) (A) (A) (A) (A) (A) (A) (A)
                 (A) (A) (A) (A) (A) (A) (A) (A) (A) (A) (A) (A)
                 (A) (A) (A) (A) (A) (A) (A) (A) (A) (A) (A) (A)
                 (A) (A) (A) (A) (A) (A) (A) (A) (A) (A) (A) (A)
                 (A) (A) (A) (A) (A) (A) (A) (A) (A) (A) (A) (A)
                 (A) (A) (A) (A) (A) (A) (A) (A) (A) (A) (A) (A)
                 (A) (A) (A) (A) (A) (A) (A) (A) (A) (A) (A) (A)
                 (A) (A) (A) (A) (A) (A) (A) (A) (A) (A) (A) (A)
                 (A) (A) (A) (A) (A) (A) (A) (A) (A) (A) (A) (A)
                 (A) (A) (A) (A) (A) (A) (A) (A) (A) (A) (A) (A)
                 (A) (A) (A) (A) (A) (A) (A) (A) (A) (A) (A) (A)
                 (A) (A) (A) (A) (A) (A) (A)
    12 initial guesses have been made.
 Convergence on wavefunction:    0.000001000000000
 Davidson Disk Diagonalization:  ConvIn= 1.00D-06 SkipCon=T Conv= 1.00D-06.
 Max sub-space:  2000 roots to seek:    12 dimension of matrix:        84830
 Iteration     1 Dimension    12 NMult     0 NNew     12
 CISAX will form     6 AO SS matrices at one time.
 NMat=     6 NSing=     6 JSym2X= 0.
 FoFJK:  IHMeth= 1 ICntrl=       0 DoSepK=F KAlg= 0 I1Cent=           0 FoldK=F
 IRaf= 990000000 NMat=      12 IRICut=       1 DoRegI=T DoRafI=F ISym2E= 0 IDoP0=0 IntGTp=1.
 FoFCou: FMM=T IPFlag=           0 FMFlag=      100000 FMFlg1=        2001
         NFxFlg=           0 DoJE=F BraDBF=F KetDBF=F FulRan=T
         wScrn=  0.000000 ICntrl=         0 IOpCl=  0 I1Cent=           0 NGrid=           0
         NMat0=   12 NMatS0=      6 NMatT0=    0 NMatD0=   12 NMtDS0=    0 NMtDT0=    0
 Symmetry not used in FoFCou.
 FMM levels:  10  Number of levels for PrismC:   9
 NMat=     6 NSing=     6 JSym2X= 0.
 New state      3 was old state      4
 Excitation Energies [eV] at current iteration:
 Root      1 :     3.295223797853408
 Root      2 :     3.464282543789934
 Root      3 :     3.588368693101104
 Root      4 :     3.677753818205933
 Root      5 :     3.803025635186229
 Root      6 :     3.947648255638549
 Root      7 :     4.219252091331887
 Root      8 :     4.532708897757965
 Root      9 :     4.624074350502258
 Root     10 :     4.640424691684375
 Root     11 :     4.945282411462883
 Root     12 :     5.986353646690996
 Iteration     2 Dimension    18 NMult    12 NNew      6
 CISAX will form     6 AO SS matrices at one time.
 NMat=     6 NSing=     6 JSym2X= 0.
 Root      1 not converged, maximum delta is    0.110179788206408
 Root      2 not converged, maximum delta is    0.066071795000599
 Root      3 not converged, maximum delta is    0.067003032123975
 Excitation Energies [eV] at current iteration:
 Root      1 :     2.745587238805138   Change is   -0.549636559048270
 Root      2 :     3.117192840790785   Change is   -0.347089702999149
 Root      3 :     3.558584207356931   Change is   -0.029784485744173
 Iteration     3 Dimension    24 NMult    18 NNew      6
 CISAX will form     6 AO SS matrices at one time.
 NMat=     6 NSing=     6 JSym2X= 0.
 Root      1 not converged, maximum delta is    0.021212367470551
 Root      2 not converged, maximum delta is    0.014394083932356
 Root      3 not converged, maximum delta is    0.007591774342145
 Excitation Energies [eV] at current iteration:
 Root      1 :     2.712405410102545   Change is   -0.033181828702593
 Root      2 :     3.100475163455993   Change is   -0.016717677334792
 Root      3 :     3.556152495948734   Change is   -0.002431711408197
 Iteration     4 Dimension    30 NMult    24 NNew      6
 CISAX will form     6 AO SS matrices at one time.
 NMat=     6 NSing=     6 JSym2X= 0.
 Root      1 not converged, maximum delta is    0.005561491621232
 Root      2 not converged, maximum delta is    0.009872949711291
 Root      3 not converged, maximum delta is    0.001609453697529
 Excitation Energies [eV] at current iteration:
 Root      1 :     2.708207311848927   Change is   -0.004198098253618
 Root      2 :     3.097480254135760   Change is   -0.002994909320233
 Root      3 :     3.555893833882178   Change is   -0.000258662066556
 Iteration     5 Dimension    36 NMult    30 NNew      6
 CISAX will form     6 AO SS matrices at one time.
 NMat=     6 NSing=     6 JSym2X= 0.
 Root      1 not converged, maximum delta is    0.001708210738442
 Root      2 not converged, maximum delta is    0.002166887889172
 Root      3 not converged, maximum delta is    0.000521732193648
 Excitation Energies [eV] at current iteration:
 Root      1 :     2.707814499100665   Change is   -0.000392812748262
 Root      2 :     3.097138576690042   Change is   -0.000341677445718
 Root      3 :     3.555862758412382   Change is   -0.000031075469795
 Iteration     6 Dimension    42 NMult    36 NNew      6
 CISAX will form     6 AO SS matrices at one time.
 NMat=     6 NSing=     6 JSym2X= 0.
 Root      1 not converged, maximum delta is    0.000512866656633
 Root      2 not converged, maximum delta is    0.000382908448868
 Root      3 not converged, maximum delta is    0.000192925585893
 Excitation Energies [eV] at current iteration:
 Root      1 :     2.707766988229388   Change is   -0.000047510871278
 Root      2 :     3.097096355339764   Change is   -0.000042221350278
 Root      3 :     3.555857915624322   Change is   -0.000004842788060
 Iteration     7 Dimension    48 NMult    42 NNew      6
 CISAX will form     6 AO SS matrices at one time.
 NMat=     6 NSing=     6 JSym2X= 0.
 Root      1 not converged, maximum delta is    0.000324152305885
 Root      2 not converged, maximum delta is    0.000238299224949
 Root      3 not converged, maximum delta is    0.000155832232421
 Excitation Energies [eV] at current iteration:
 Root      1 :     2.707756595190179   Change is   -0.000010393039209
 Root      2 :     3.097091546294373   Change is   -0.000004809045391
 Root      3 :     3.555856894189401   Change is   -0.000001021434921
 Iteration     8 Dimension    54 NMult    48 NNew      6
 CISAX will form     6 AO SS matrices at one time.
 NMat=     6 NSing=     6 JSym2X= 0.
 Root      1 not converged, maximum delta is    0.000055944383332
 Root      2 not converged, maximum delta is    0.000069710168000
 Root      3 not converged, maximum delta is    0.000036644600445
 Excitation Energies [eV] at current iteration:
 Root      1 :     2.707755872962163   Change is   -0.000000722228016
 Root      2 :     3.097090989108994   Change is   -0.000000557185379
 Root      3 :     3.555856772723969   Change is   -0.000000121465432
 Iteration     9 Dimension    60 NMult    54 NNew      6
 CISAX will form     6 AO SS matrices at one time.
 NMat=     6 NSing=     6 JSym2X= 0.
 Root      1 not converged, maximum delta is    0.000016481402217
 Root      2 not converged, maximum delta is    0.000016331974416
 Root      3 not converged, maximum delta is    0.000016950876113
 Excitation Energies [eV] at current iteration:
 Root      1 :     2.707755808771825   Change is   -0.000000064190338
 Root      2 :     3.097090914469575   Change is   -0.000000074639419
 Root      3 :     3.555856757953277   Change is   -0.000000014770692
 Iteration    10 Dimension    66 NMult    60 NNew      6
 CISAX will form     6 AO SS matrices at one time.
 NMat=     6 NSing=     6 JSym2X= 0.
 Root      1 not converged, maximum delta is    0.000002328301200
 Root      2 not converged, maximum delta is    0.000006482335501
 Root      3 not converged, maximum delta is    0.000005054046263
 Excitation Energies [eV] at current iteration:
 Root      1 :     2.707755803541401   Change is   -0.000000005230424
 Root      2 :     3.097090908296336   Change is   -0.000000006173240
 Root      3 :     3.555856756400104   Change is   -0.000000001553174
 Iteration    11 Dimension    72 NMult    66 NNew      6
 CISAX will form     6 AO SS matrices at one time.
 NMat=     6 NSing=     6 JSym2X= 0.
 Root      1 has converged.
 Root      2 has converged.
 Root      3 not converged, maximum delta is    0.000003137080554
 Excitation Energies [eV] at current iteration:
 Root      1 :     2.707755803013592   Change is   -0.000000000527809
 Root      2 :     3.097090907766661   Change is   -0.000000000529674
 Root      3 :     3.555856756197559   Change is   -0.000000000202545
 Iteration    12 Dimension    74 NMult    72 NNew      2
 CISAX will form     2 AO SS matrices at one time.
 NMat=     2 NSing=     2 JSym2X= 0.
 Root      1 has converged.
 Root      2 has converged.
 Root      3 not converged, maximum delta is    0.000001282486221
 Excitation Energies [eV] at current iteration:
 Root      1 :     2.707755803009039   Change is   -0.000000000004554
 Root      2 :     3.097090907765918   Change is   -0.000000000000743
 Root      3 :     3.555856756164938   Change is   -0.000000000032621
 Iteration    13 Dimension    76 NMult    74 NNew      2
 CISAX will form     2 AO SS matrices at one time.
 NMat=     2 NSing=     2 JSym2X= 0.
 Root      1 has converged.
 Root      2 has converged.
 Root      3 has converged.
 Excitation Energies [eV] at current iteration:
 Root      1 :     2.707755803008735   Change is   -0.000000000000304
 Root      2 :     3.097090907764856   Change is   -0.000000000001062
 Root      3 :     3.555856756159435   Change is   -0.000000000005503
 Convergence achieved on expansion vectors.
 ***********************************************************************
 Excited states from <AA,BB:AA,BB> singles matrix:
 ***********************************************************************
 
 1PDM for each excited state written to RWF  633
 Ground to excited state transition densities written to RWF  633
 Ground to excited state transition electric dipole moments (Au):
       state          X           Y           Z        Dip. S.      Osc.
         1        -3.5915      0.1622      0.0234     12.9256      0.8575
         2        -0.1404      0.3705     -0.0219      0.1575      0.0119
         3         0.2563     -0.0568      0.0057      0.0690      0.0060
 Ground to excited state transition velocity dipole moments (Au):
       state          X           Y           Z        Dip. S.      Osc.
         1         0.3478     -0.0161     -0.0020      0.1212      0.8122
         2         0.0153     -0.0331      0.0006      0.0013      0.0078
         3        -0.0290      0.0071     -0.0008      0.0009      0.0046
 Ground to excited state transition magnetic dipole moments (Au):
       state          X           Y           Z
         1        -0.0543     -0.2366     -0.9932
         2         0.0077     -0.0521     -0.0487
         3         0.0091     -0.0302      0.2349
 Ground to excited state transition velocity quadrupole moments (Au):
       state          XX          YY          ZZ          XY          XZ          YZ
         1        -0.1222      0.1097      0.0053     -1.0810      0.0194      0.0068
         2         1.0956      0.0770     -0.0012     -0.1032      0.0113      0.0304
         3        -0.0311      0.0184      0.0059      0.1195     -0.0102     -0.0085
 <0|del|b> * <b|rxdel|0> + <0|del|b> * <b|delr+rdel|0>
 Rotatory Strengths (R) in cgs (10**-40 erg-esu-cm/Gauss)
       state          XX          YY          ZZ    R(velocity)    E-M Angle
         1        29.5215    -59.4069    -63.0731    -30.9862       92.11
         2         6.2620      1.9080      3.1222      3.7641       46.09
         3        -1.1542     -0.2966     -2.1624     -1.2044       95.40
 1/2[<0|r|b>*<b|rxdel|0> + (<0|rxdel|b>*<b|r|0>)*]
 Rotatory Strengths (R) in cgs (10**-40 erg-esu-cm/Gauss)
       state          XX          YY          ZZ     R(length)
         1      -137.9541     27.1351     16.4329    -31.4620
         2         0.7654     13.6572     -0.7543      4.5561
         3        -1.6520     -1.2136     -0.9469     -1.2709
  1/2[<0|del|b>*<b|r|0> + (<0|r|b>*<b|del|0>)*] (Au)
       state          X           Y           Z        Dip. S.   Osc.(frdel)
         1        -1.2491     -0.0026     -0.0000      1.2518      0.8345
         2        -0.0021     -0.0123     -0.0000      0.0144      0.0096
         3        -0.0074     -0.0004     -0.0000      0.0079      0.0052

 Excitation energies and oscillator strengths:
 
 Excited State   1:      Singlet-A      2.7078 eV  457.89 nm  f=0.8575  <S**2>=0.000
     118 ->119         0.70241
 This state for optimization and/or second-order correction.
 Total Energy, E(TD-HF/TD-DFT) =  -1420.63871082    
 Copying the excited state density for this state as the 1-particle RhoCI density.
 
 Excited State   2:      Singlet-A      3.0971 eV  400.32 nm  f=0.0119  <S**2>=0.000
     116 ->119        -0.19327
     117 ->119         0.67457
 
 Excited State   3:      Singlet-A      3.5559 eV  348.68 nm  f=0.0060  <S**2>=0.000
     114 ->119        -0.35219
     115 ->119         0.60667
 SavETr:  write IOETrn=   770 NScale= 10 NData=  16 NLR=1 NState=    3 LETran=      64.
 The selected state is a singlet.
 CISGrd: IGrad=2 NXY=2 DFT=T
 CISAX will form     1 AO SS matrices at one time.
 NMat=     1 NSing=     1 JSym2X= 0.
 Leave Link  914 at Fri Jun 11 02:35:31 2021, MaxMem=   134217728 cpu:           10338.8 elap:             646.7
 (Enter /APL/ISV/x86_64/gaussian/16/C.01/g16/l1002.exe)
 Minotr:  Closed shell wavefunction.
          Computing CIS/TDA/TD derivatives.
          Using Z-Vector for PSCF gradient.
          Skipping F1 and S1 gradient terms here.
          IDoAtm=11111111111111111111111111111111111111111111111111
          IDoAtm=11111111111111
          Frozen-core window.
          Direct CPHF calculation.
          Differentiating once with respect to electric field.
                with respect to dipole field.
          Differentiating once with respect to nuclear coordinates.
          Requested convergence is 1.0D-10 RMS, and 1.0D-09 maximum.
          NewPWx=F KeepS1=T KeepF1=T KeepIn=T MapXYZ=F SortEE=F KeepMc=T.
 Two-electron integral symmetry used by symmetrizing perturbed Fock matrices.
          MDV=     134217728 using IRadAn=       5.
          Solving linear equations separately, MaxMat=      72.
          There are     1 degrees of freedom in the 1st order CPHF.  IDoFFX=0 NUNeed=     1.
 FoFJK:  IHMeth= 1 ICntrl=       0 DoSepK=F KAlg= 0 I1Cent=           0 FoldK=F
 IRaf= 990000000 NMat=       1 IRICut=       1 DoRegI=T DoRafI=F ISym2E= 2 IDoP0=0 IntGTp=1.
 FoFCou: FMM=T IPFlag=           0 FMFlag=      100000 FMFlg1=        2001
         NFxFlg=           0 DoJE=F BraDBF=F KetDBF=F FulRan=T
         wScrn=  0.000000 ICntrl=         0 IOpCl=  0 I1Cent=           0 NGrid=           0
         NMat0=    1 NMatS0=      1 NMatT0=    0 NMatD0=    1 NMtDS0=    0 NMtDT0=    0
 Symmetry not used in FoFCou.
 FMM levels:  10  Number of levels for PrismC:   9
 LinEq1:  Iter=  0 NonCon=     1 RMS=6.84D-03 Max=1.09D+00 NDo=     1
 AX will form     1 AO Fock derivatives at one time.
 LinEq1:  Iter=  1 NonCon=     1 RMS=5.33D-03 Max=6.18D-01 NDo=     1
 LinEq1:  Iter=  2 NonCon=     1 RMS=3.46D-03 Max=2.38D-01 NDo=     1
 LinEq1:  Iter=  3 NonCon=     1 RMS=1.55D-03 Max=1.10D-01 NDo=     1
 LinEq1:  Iter=  4 NonCon=     1 RMS=1.21D-03 Max=8.83D-02 NDo=     1
 LinEq1:  Iter=  5 NonCon=     1 RMS=9.07D-04 Max=5.70D-02 NDo=     1
 LinEq1:  Iter=  6 NonCon=     1 RMS=4.11D-04 Max=2.84D-02 NDo=     1
 LinEq1:  Iter=  7 NonCon=     1 RMS=2.96D-04 Max=2.33D-02 NDo=     1
 LinEq1:  Iter=  8 NonCon=     1 RMS=1.86D-04 Max=1.53D-02 NDo=     1
 LinEq1:  Iter=  9 NonCon=     1 RMS=1.09D-04 Max=7.94D-03 NDo=     1
 LinEq1:  Iter= 10 NonCon=     1 RMS=9.92D-05 Max=7.10D-03 NDo=     1
 LinEq1:  Iter= 11 NonCon=     1 RMS=5.00D-05 Max=2.64D-03 NDo=     1
 LinEq1:  Iter= 12 NonCon=     1 RMS=3.96D-05 Max=3.00D-03 NDo=     1
 LinEq1:  Iter= 13 NonCon=     1 RMS=1.99D-05 Max=1.24D-03 NDo=     1
 LinEq1:  Iter= 14 NonCon=     1 RMS=1.39D-05 Max=5.34D-04 NDo=     1
 LinEq1:  Iter= 15 NonCon=     1 RMS=7.24D-06 Max=3.02D-04 NDo=     1
 LinEq1:  Iter= 16 NonCon=     1 RMS=4.35D-06 Max=2.31D-04 NDo=     1
 LinEq1:  Iter= 17 NonCon=     1 RMS=2.37D-06 Max=1.22D-04 NDo=     1
 LinEq1:  Iter= 18 NonCon=     1 RMS=1.39D-06 Max=1.01D-04 NDo=     1
 LinEq1:  Iter= 19 NonCon=     1 RMS=7.07D-07 Max=3.74D-05 NDo=     1
 LinEq1:  Iter= 20 NonCon=     1 RMS=4.12D-07 Max=2.27D-05 NDo=     1
 LinEq1:  Iter= 21 NonCon=     1 RMS=2.74D-07 Max=1.35D-05 NDo=     1
 LinEq1:  Iter= 22 NonCon=     1 RMS=1.47D-07 Max=6.83D-06 NDo=     1
 LinEq1:  Iter= 23 NonCon=     1 RMS=8.06D-08 Max=4.28D-06 NDo=     1
 LinEq1:  Iter= 24 NonCon=     1 RMS=4.50D-08 Max=2.42D-06 NDo=     1
 LinEq1:  Iter= 25 NonCon=     1 RMS=2.49D-08 Max=1.24D-06 NDo=     1
 LinEq1:  Iter= 26 NonCon=     1 RMS=1.42D-08 Max=7.82D-07 NDo=     1
 LinEq1:  Iter= 27 NonCon=     1 RMS=9.33D-09 Max=5.02D-07 NDo=     1
 LinEq1:  Iter= 28 NonCon=     1 RMS=4.75D-09 Max=1.51D-07 NDo=     1
 LinEq1:  Iter= 29 NonCon=     1 RMS=1.93D-09 Max=6.01D-08 NDo=     1
 LinEq1:  Iter= 30 NonCon=     1 RMS=9.86D-10 Max=4.51D-08 NDo=     1
 LinEq1:  Iter= 31 NonCon=     1 RMS=4.86D-10 Max=1.86D-08 NDo=     1
 LinEq1:  Iter= 32 NonCon=     1 RMS=2.59D-10 Max=1.24D-08 NDo=     1
 LinEq1:  Iter= 33 NonCon=     1 RMS=1.44D-10 Max=8.01D-09 NDo=     1
 LinEq1:  Iter= 34 NonCon=     1 RMS=8.30D-11 Max=3.35D-09 NDo=     1
 LinEq1:  Iter= 35 NonCon=     1 RMS=5.16D-11 Max=2.50D-09 NDo=     1
 LinEq1:  Iter= 36 NonCon=     0 RMS=2.33D-11 Max=8.43D-10 NDo=     1
 Linear equations converged to 1.000D-10 1.000D-09 after    36 iterations.
 End of Minotr F.D. properties file   721 does not exist.
 End of Minotr F.D. properties file   722 does not exist.
 End of Minotr F.D. properties file   788 does not exist.
 Leave Link 1002 at Fri Jun 11 02:42:37 2021, MaxMem=   134217728 cpu:            6783.4 elap:             426.6
 (Enter /APL/ISV/x86_64/gaussian/16/C.01/g16/l601.exe)
 Copying SCF densities to generalized density rwf, IOpCl= 0 IROHF=0.

 **********************************************************************

            Population analysis using the SCF Density.

 **********************************************************************

 Orbital symmetries:
       Occupied  (A) (A) (A) (A) (A) (A) (A) (A) (A) (A) (A) (A)
                 (A) (A) (A) (A) (A) (A) (A) (A) (A) (A) (A) (A)
                 (A) (A) (A) (A) (A) (A) (A) (A) (A) (A) (A) (A)
                 (A) (A) (A) (A) (A) (A) (A) (A) (A) (A) (A) (A)
                 (A) (A) (A) (A) (A) (A) (A) (A) (A) (A) (A) (A)
                 (A) (A) (A) (A) (A) (A) (A) (A) (A) (A) (A) (A)
                 (A) (A) (A) (A) (A) (A) (A) (A) (A) (A) (A) (A)
                 (A) (A) (A) (A) (A) (A) (A) (A) (A) (A) (A) (A)
                 (A) (A) (A) (A) (A) (A) (A) (A) (A) (A) (A) (A)
                 (A) (A) (A) (A) (A) (A) (A) (A) (A) (A)
       Virtual   (A) (A) (A) (A) (A) (A) (A) (A) (A) (A) (A) (A)
                 (A) (A) (A) (A) (A) (A) (A) (A) (A) (A) (A) (A)
                 (A) (A) (A) (A) (A) (A) (A) (A) (A) (A) (A) (A)
                 (A) (A) (A) (A) (A) (A) (A) (A) (A) (A) (A) (A)
                 (A) (A) (A) (A) (A) (A) (A) (A) (A) (A) (A) (A)
                 (A) (A) (A) (A) (A) (A) (A) (A) (A) (A) (A) (A)
                 (A) (A) (A) (A) (A) (A) (A) (A) (A) (A) (A) (A)
                 (A) (A) (A) (A) (A) (A) (A) (A) (A) (A) (A) (A)
                 (A) (A) (A) (A) (A) (A) (A) (A) (A) (A) (A) (A)
                 (A) (A) (A) (A) (A) (A) (A) (A) (A) (A) (A) (A)
                 (A) (A) (A) (A) (A) (A) (A) (A) (A) (A) (A) (A)
                 (A) (A) (A) (A) (A) (A) (A) (A) (A) (A) (A) (A)
                 (A) (A) (A) (A) (A) (A) (A) (A) (A) (A) (A) (A)
                 (A) (A) (A) (A) (A) (A) (A) (A) (A) (A) (A) (A)
                 (A) (A) (A) (A) (A) (A) (A) (A) (A) (A) (A) (A)
                 (A) (A) (A) (A) (A) (A) (A) (A) (A) (A) (A) (A)
                 (A) (A) (A) (A) (A) (A) (A) (A) (A) (A) (A) (A)
                 (A) (A) (A) (A) (A) (A) (A) (A) (A) (A) (A) (A)
                 (A) (A) (A) (A) (A) (A) (A) (A) (A) (A) (A) (A)
                 (A) (A) (A) (A) (A) (A) (A) (A) (A) (A) (A) (A)
                 (A) (A) (A) (A) (A) (A) (A) (A) (A) (A) (A) (A)
                 (A) (A) (A) (A) (A) (A) (A) (A) (A) (A) (A) (A)
                 (A) (A) (A) (A) (A) (A) (A) (A) (A) (A) (A) (A)
                 (A) (A) (A) (A) (A) (A) (A) (A) (A) (A) (A) (A)
                 (A) (A) (A) (A) (A) (A) (A) (A) (A) (A) (A) (A)
                 (A) (A) (A) (A) (A) (A) (A) (A) (A) (A) (A) (A)
                 (A) (A) (A) (A) (A) (A) (A) (A) (A) (A) (A) (A)
                 (A) (A) (A) (A) (A) (A) (A) (A) (A) (A) (A) (A)
                 (A) (A) (A) (A) (A) (A) (A) (A) (A) (A) (A) (A)
                 (A) (A) (A) (A) (A) (A) (A) (A) (A) (A) (A) (A)
                 (A) (A) (A) (A) (A) (A) (A) (A) (A) (A) (A) (A)
                 (A) (A) (A) (A) (A) (A) (A) (A) (A) (A) (A) (A)
                 (A) (A) (A) (A) (A) (A) (A) (A) (A) (A) (A) (A)
                 (A) (A) (A) (A) (A) (A) (A) (A) (A) (A) (A) (A)
                 (A) (A) (A) (A) (A) (A) (A) (A) (A) (A) (A) (A)
                 (A) (A) (A) (A) (A) (A) (A) (A) (A) (A) (A) (A)
                 (A) (A) (A) (A) (A) (A) (A) (A) (A) (A) (A) (A)
                 (A) (A) (A) (A) (A) (A) (A) (A) (A) (A) (A) (A)
                 (A) (A) (A) (A) (A) (A) (A) (A) (A) (A) (A) (A)
[...]
                 (A) (A) (A) (A) (A) (A) (A) (A) (A) (A) (A) (A)
                 (A) (A) (A) (A) (A) (A) (A) (A) (A) (A) (A) (A)
                 (A) (A) (A) (A) (A) (A) (A) (A) (A) (A) (A) (A)
                 (A) (A) (A) (A) (A) (A) (A) (A) (A) (A) (A) (A)
                 (A) (A) (A) (A) (A) (A) (A) (A) (A) (A) (A) (A)
                 (A) (A) (A) (A) (A) (A) (A) (A) (A) (A) (A) (A)
                 (A) (A) (A) (A) (A) (A) (A) (A) (A) (A) (A) (A)
                 (A) (A) (A) (A) (A) (A) (A) (A) (A) (A) (A) (A)
                 (A) (A) (A) (A) (A) (A) (A) (A) (A) (A) (A) (A)
                 (A) (A) (A) (A) (A) (A) (A) (A) (A) (A) (A) (A)
                 (A) (A) (A) (A) (A) (A) (A) (A) (A) (A) (A) (A)
                 (A) (A) (A) (A) (A) (A) (A) (A) (A) (A) (A) (A)
                 (A) (A) (A) (A) (A) (A) (A) (A) (A) (A) (A) (A)
                 (A) (A) (A) (A) (A) (A) (A) (A) (A) (A) (A) (A)
                 (A) (A) (A) (A) (A) (A) (A) (A) (A) (A) (A) (A)
                 (A) (A) (A) (A) (A) (A) (A) (A) (A) (A) (A) (A)
                 (A) (A) (A) (A) (A) (A) (A) (A) (A) (A) (A) (A)
                 (A) (A) (A) (A) (A) (A) (A) (A) (A) (A) (A) (A)
                 (A) (A) (A) (A) (A) (A) (A) (A) (A) (A) (A) (A)
                 (A) (A) (A) (A) (A) (A) (A) (A) (A) (A) (A) (A)
                 (A) (A) (A) (A) (A) (A) (A) (A) (A) (A) (A) (A)
                 (A) (A) (A) (A) (A) (A) (A) (A) (A) (A) (A) (A)
                 (A) (A) (A) (A) (A) (A) (A)
 The electronic state is 1-A.
 Alpha  occ. eigenvalues --  -19.32773 -19.27898 -19.22019 -14.48259 -14.46191
 Alpha  occ. eigenvalues --  -10.41182 -10.38760 -10.37553 -10.36937 -10.35862
 Alpha  occ. eigenvalues --  -10.35128 -10.33190 -10.33165 -10.32558 -10.32482
 Alpha  occ. eigenvalues --  -10.31984 -10.31960 -10.31841 -10.31723 -10.31436
 Alpha  occ. eigenvalues --  -10.31014 -10.30956 -10.30547 -10.30461 -10.30144
 Alpha  occ. eigenvalues --  -10.29962 -10.29732 -10.29675 -10.29438 -10.28318
 Alpha  occ. eigenvalues --  -10.28244 -10.27672 -10.27213  -1.22955  -1.19815
 Alpha  occ. eigenvalues --   -1.10599  -1.07824  -1.05726  -0.99326  -0.97809
 Alpha  occ. eigenvalues --   -0.96405  -0.92380  -0.89550  -0.88079  -0.87680
 Alpha  occ. eigenvalues --   -0.87174  -0.86688  -0.86501  -0.84810  -0.83815
 Alpha  occ. eigenvalues --   -0.81991  -0.78453  -0.77016  -0.76320  -0.74999
 Alpha  occ. eigenvalues --   -0.74668  -0.74022  -0.72111  -0.71157  -0.70047
 Alpha  occ. eigenvalues --   -0.69835  -0.68410  -0.65419  -0.64961  -0.64018
 Alpha  occ. eigenvalues --   -0.62091  -0.61955  -0.61301  -0.60226  -0.59075
 Alpha  occ. eigenvalues --   -0.58753  -0.58337  -0.57500  -0.57309  -0.56357
 Alpha  occ. eigenvalues --   -0.56296  -0.55945  -0.55435  -0.55006  -0.54356
 Alpha  occ. eigenvalues --   -0.54041  -0.53903  -0.53548  -0.53258  -0.52926
 Alpha  occ. eigenvalues --   -0.52610  -0.51630  -0.50644  -0.49982  -0.49829
 Alpha  occ. eigenvalues --   -0.49801  -0.49181  -0.48724  -0.48052  -0.47813
 Alpha  occ. eigenvalues --   -0.47780  -0.47453  -0.47405  -0.47090  -0.46644
 Alpha  occ. eigenvalues --   -0.46388  -0.45875  -0.45420  -0.45208  -0.45020
 Alpha  occ. eigenvalues --   -0.44480  -0.44192  -0.43876  -0.43098  -0.41196
 Alpha  occ. eigenvalues --   -0.40129  -0.38114  -0.37014  -0.36736  -0.36146
 Alpha  occ. eigenvalues --   -0.35046  -0.33007  -0.30309
 Alpha virt. eigenvalues --   -0.20831  -0.15041  -0.12947  -0.12132  -0.11287
 Alpha virt. eigenvalues --   -0.10654  -0.05882  -0.04969  -0.04378  -0.04075
 Alpha virt. eigenvalues --   -0.02907  -0.02377  -0.01976  -0.01636  -0.01569
 Alpha virt. eigenvalues --   -0.00968  -0.00519   0.00275   0.00526   0.01114
 Alpha virt. eigenvalues --    0.01738   0.01851   0.02802   0.03021   0.03067
 Alpha virt. eigenvalues --    0.03371   0.03843   0.03963   0.04162   0.04301
 Alpha virt. eigenvalues --    0.04599   0.04790   0.05194   0.05543   0.06331
 Alpha virt. eigenvalues --    0.06361   0.06636   0.06765   0.06850   0.07448
 Alpha virt. eigenvalues --    0.07663   0.07961   0.08305   0.08837   0.09387
 Alpha virt. eigenvalues --    0.09891   0.10351   0.11037   0.12319   0.13148
 Alpha virt. eigenvalues --    0.13353   0.13807   0.14201   0.14269   0.14800
 Alpha virt. eigenvalues --    0.15513   0.15947   0.17051   0.18703   0.19173
 Alpha virt. eigenvalues --    0.19716   0.20755   0.20951   0.22087   0.22302
 Alpha virt. eigenvalues --    0.23024   0.24818   0.25200   0.26258   0.27331
 Alpha virt. eigenvalues --    0.27418   0.28256   0.29172   0.29771   0.30038
 Alpha virt. eigenvalues --    0.30640   0.31494   0.32161   0.32313   0.32606
 Alpha virt. eigenvalues --    0.33316   0.33507   0.34116   0.34279   0.34659
 Alpha virt. eigenvalues --    0.34769   0.35477   0.35710   0.35993   0.36654
 Alpha virt. eigenvalues --    0.36910   0.37464   0.37515   0.38137   0.38277
 Alpha virt. eigenvalues --    0.38542   0.38853   0.39099   0.39723   0.39789
 Alpha virt. eigenvalues --    0.40110   0.40225   0.40445   0.40829   0.41039
 Alpha virt. eigenvalues --    0.41534   0.42162   0.42240   0.42815   0.43281
 Alpha virt. eigenvalues --    0.43739   0.44148   0.45099   0.45394   0.45777
 Alpha virt. eigenvalues --    0.46965   0.47138   0.47414   0.47766   0.47934
 Alpha virt. eigenvalues --    0.48772   0.49050   0.49923   0.50087   0.50243
 Alpha virt. eigenvalues --    0.50514   0.51298   0.51635   0.52088   0.52752
 Alpha virt. eigenvalues --    0.53139   0.53432   0.53696   0.54183   0.54456
 Alpha virt. eigenvalues --    0.54678   0.54853   0.55009   0.55366   0.55529
 Alpha virt. eigenvalues --    0.55624   0.55773   0.56161   0.56442   0.56684
 Alpha virt. eigenvalues --    0.56929   0.57225   0.57454   0.57756   0.57962
 Alpha virt. eigenvalues --    0.58568   0.58889   0.59369   0.59776   0.60911
 Alpha virt. eigenvalues --    0.61262   0.61321   0.61586   0.62177   0.62397
 Alpha virt. eigenvalues --    0.62515   0.62989   0.63709   0.64036   0.64364
 Alpha virt. eigenvalues --    0.64551   0.65306   0.66227   0.66565   0.67351
 Alpha virt. eigenvalues --    0.68509   0.69539   0.70435   0.70630   0.71690
 Alpha virt. eigenvalues --    0.72568   0.73181   0.73758   0.74449   0.74864
 Alpha virt. eigenvalues --    0.76366   0.76686   0.77306   0.77713   0.78074
 Alpha virt. eigenvalues --    0.78398   0.78759   0.79403   0.79820   0.80813
 Alpha virt. eigenvalues --    0.81346   0.81826   0.82570   0.82741   0.83345
 Alpha virt. eigenvalues --    0.84391   0.84719   0.85250   0.85869   0.86613
 Alpha virt. eigenvalues --    0.87254   0.88237   0.88321   0.88611   0.89228
 Alpha virt. eigenvalues --    0.89682   0.90406   0.91018   0.91902   0.91953
 Alpha virt. eigenvalues --    0.92197   0.92985   0.93418   0.94108   0.94450
 Alpha virt. eigenvalues --    0.94538   0.95760   0.96000   0.96748   0.97993
 Alpha virt. eigenvalues --    0.98536   0.99461   0.99705   1.00414   1.01401
 Alpha virt. eigenvalues --    1.02444   1.02966   1.03946   1.05071   1.05749
 Alpha virt. eigenvalues --    1.06235   1.07316   1.07614   1.08262   1.08377
 Alpha virt. eigenvalues --    1.09131   1.09797   1.10273   1.12110   1.12657
 Alpha virt. eigenvalues --    1.13293   1.13481   1.14215   1.14523   1.15597
 Alpha virt. eigenvalues --    1.15782   1.16473   1.20487   1.21162   1.21472
 Alpha virt. eigenvalues --    1.23438   1.23615   1.25065   1.25469   1.26347
 Alpha virt. eigenvalues --    1.27000   1.28242   1.28480   1.30218   1.30428
 Alpha virt. eigenvalues --    1.31071   1.31400   1.31698   1.32280   1.32662
 Alpha virt. eigenvalues --    1.33166   1.33395   1.33854   1.34191   1.34789
 Alpha virt. eigenvalues --    1.35717   1.35765   1.36316   1.36902   1.37498
 Alpha virt. eigenvalues --    1.38340   1.38831   1.39223   1.39470   1.39557
 Alpha virt. eigenvalues --    1.39871   1.41077   1.41664   1.42217   1.43782
 Alpha virt. eigenvalues --    1.44053   1.45392   1.46470   1.46652   1.46717
 Alpha virt. eigenvalues --    1.47627   1.47733   1.48173   1.48706   1.49247
 Alpha virt. eigenvalues --    1.49813   1.50226   1.50602   1.51062   1.51157
 Alpha virt. eigenvalues --    1.51541   1.51821   1.52222   1.52457   1.52951
 Alpha virt. eigenvalues --    1.53263   1.53831   1.53963   1.54117   1.54692
 Alpha virt. eigenvalues --    1.54948   1.55209   1.55411   1.55608   1.55984
 Alpha virt. eigenvalues --    1.56108   1.56502   1.56953   1.57228   1.57736
 Alpha virt. eigenvalues --    1.57801   1.58531   1.58839   1.59346   1.59708
 Alpha virt. eigenvalues --    1.60657   1.60902   1.61017   1.61728   1.61979
 Alpha virt. eigenvalues --    1.62109   1.62228   1.62785   1.63111   1.63402
 Alpha virt. eigenvalues --    1.64030   1.64103   1.64309   1.64991   1.65567
 Alpha virt. eigenvalues --    1.66095   1.66393   1.66844   1.66973   1.67316
 Alpha virt. eigenvalues --    1.67681   1.68306   1.68537   1.69353   1.69662
 Alpha virt. eigenvalues --    1.70457   1.70770   1.71393   1.72138   1.72588
 Alpha virt. eigenvalues --    1.72971   1.73321   1.74304   1.74478   1.75106
 Alpha virt. eigenvalues --    1.75840   1.76139   1.76908   1.77596   1.78264
 Alpha virt. eigenvalues --    1.78906   1.79114   1.80212   1.81879   1.82586
 Alpha virt. eigenvalues --    1.82995   1.83801   1.83953   1.84204   1.85665
 Alpha virt. eigenvalues --    1.86364   1.87141   1.87711   1.88200   1.88559
 Alpha virt. eigenvalues --    1.89023   1.89675   1.90646   1.91262   1.92341
 Alpha virt. eigenvalues --    1.93004   1.93469   1.93962   1.94517   1.94893
 Alpha virt. eigenvalues --    1.95955   1.97211   1.97832   1.98380   1.99264
 Alpha virt. eigenvalues --    1.99800   1.99834   2.00868   2.01536   2.01626
 Alpha virt. eigenvalues --    2.03449   2.04120   2.04496   2.05161   2.06009
 Alpha virt. eigenvalues --    2.07473   2.08205   2.08479   2.10203   2.10412
 Alpha virt. eigenvalues --    2.11008   2.11837   2.12243   2.12294   2.12883
 Alpha virt. eigenvalues --    2.13757   2.14206   2.15248   2.15863   2.16575
 Alpha virt. eigenvalues --    2.16775   2.17599   2.18493   2.20603   2.21156
 Alpha virt. eigenvalues --    2.22382   2.23220   2.24364   2.24475   2.25640
 Alpha virt. eigenvalues --    2.25976   2.27506   2.28794   2.31557   2.31639
 Alpha virt. eigenvalues --    2.32174   2.32476   2.33000   2.33443   2.34184
 Alpha virt. eigenvalues --    2.34751   2.36315   2.36768   2.37159   2.37545
 Alpha virt. eigenvalues --    2.40090   2.40552   2.41809   2.42294   2.42562
 Alpha virt. eigenvalues --    2.43065   2.43923   2.44633   2.46533   2.46773
 Alpha virt. eigenvalues --    2.47368   2.48861   2.50167   2.50543   2.51922
 Alpha virt. eigenvalues --    2.52014   2.52852   2.54225   2.56262   2.57936
 Alpha virt. eigenvalues --    2.58059   2.59312   2.60093   2.62241   2.62800
 Alpha virt. eigenvalues --    2.64168   2.65905   2.66694   2.67021   2.67246
 Alpha virt. eigenvalues --    2.69342   2.70971   2.71755   2.73763   2.75854
 Alpha virt. eigenvalues --    2.77580   2.79062   2.80503   2.82483   2.85987
 Alpha virt. eigenvalues --    2.94118   2.95088   3.02411   3.04486   3.04703
 Alpha virt. eigenvalues --    3.14171   3.16369   3.28854   3.31519   3.39512
 Alpha virt. eigenvalues --    3.46327   3.49976   3.53636   3.65265
          Condensed to atoms (all electrons):
 Mulliken charges:
               1
     1  C    0.222035
     2  C   -0.031076
     3  C    0.092024
     4  C    0.047198
     5  C   -0.014922
     6  C    0.022863
     7  C    0.205645
     8  C   -0.011534
     9  C    0.118467
    10  C   -0.018379
    11  H   -0.007252
    12  C    0.203507
    13  C    0.031397
    14  C    0.003547
    15  H   -0.014561
    16  H   -0.003786
    17  H   -0.008675
    18  H   -0.001506
    19  H    0.000223
    20  C   -0.040183
    21  C   -0.062380
    22  C    0.028110
    23  C    0.082934
    24  C    0.062592
    25  H   -0.019795
    26  C    0.058803
    27  H    0.001474
    28  H    0.002366
    29  H    0.004421
    30  O   -0.210238
    31  N   -0.303929
    32  N   -0.260935
    33  C    0.153005
    34  O   -0.208908
    35  O   -0.172561
    36  H    0.161123
    37  C    0.036202
    38  H    0.037062
    39  H    0.042242
    40  C   -0.016744
    41  H    0.035076
    42  H    0.039228
    43  H    0.048130
    44  C    0.039868
    45  H    0.042438
    46  H    0.036025
    47  C   -0.016477
    48  H    0.047255
    49  H    0.033951
    50  H    0.039305
    51  C    0.049729
    52  H    0.030794
    53  H    0.034492
    54  C    0.028142
    55  H    0.045875
    56  H    0.037479
    57  C   -0.011142
    58  H    0.050939
    59  H    0.044727
    60  H    0.045055
    61  C   -0.016885
    62  H    0.029459
    63  H    0.040435
    64  H    0.036223
 Sum of Mulliken charges =   1.00000
 Mulliken charges with hydrogens summed into heavy atoms:
               1
     1  C    0.222035
     2  C   -0.045637
     3  C    0.092024
     4  C    0.047198
     5  C   -0.018708
     6  C    0.014189
     7  C    0.205645
     8  C   -0.011534
     9  C    0.118467
    10  C   -0.025631
    12  C    0.203507
    13  C    0.029891
    14  C    0.003770
    20  C   -0.040183
    21  C   -0.062380
    22  C    0.008315
    23  C    0.084408
    24  C    0.064958
    26  C    0.063224
    30  O   -0.210238
    31  N   -0.303929
    32  N   -0.260935
    33  C    0.153005
    34  O   -0.208908
    35  O   -0.011438
    37  C    0.115506
    40  C    0.105689
    44  C    0.118331
    47  C    0.104035
    51  C    0.115015
    54  C    0.111496
    57  C    0.129579
    61  C    0.089232
 Electronic spatial extent (au):  <R**2>=          18709.2484
 Charge=              1.0000 electrons
 Dipole moment (field-independent basis, Debye):
    X=              2.8330    Y=             -4.0007    Z=             -1.4460  Tot=              5.1110
 Quadrupole moment (field-independent basis, Debye-Ang):
   XX=            -78.1447   YY=           -145.7579   ZZ=           -185.6914
   XY=              2.8247   XZ=              0.1035   YZ=            -14.4508
 Traceless Quadrupole moment (field-independent basis, Debye-Ang):
   XX=             58.3866   YY=             -9.2265   ZZ=            -49.1601
   XY=              2.8247   XZ=              0.1035   YZ=            -14.4508
 Octapole moment (field-independent basis, Debye-Ang**2):
  XXX=             61.5632  YYY=            -15.4953  ZZZ=             25.8695  XYY=             29.3145
  XXY=           -223.5265  XXZ=             18.8925  XZZ=              7.2833  YZZ=             14.2620
  YYZ=            -65.1532  XYZ=             -1.0810
 Hexadecapole moment (field-independent basis, Debye-Ang**3):
 XXXX=         -10933.2012 YYYY=          -7486.6150 ZZZZ=          -1177.9977 XXXY=            -52.3212
 XXXZ=             47.7099 YYYX=             26.1878 YYYZ=           -370.7153 ZZZX=            -55.3815
 ZZZY=            -11.2670 XXYY=          -3331.5895 XXZZ=          -2758.2575 YYZZ=          -1602.3873
 XXYZ=            -36.6776 YYXZ=             35.7035 ZZXY=             39.6826
 N-N= 3.286853604644D+03 E-N=-9.849548889037D+03  KE= 1.410621532407D+03
 No NMR shielding tensors so no spin-rotation constants.
 Leave Link  601 at Fri Jun 11 07:40:21 2021, MaxMem=   134217728 cpu:               4.8 elap:               0.4
 (Enter /APL/ISV/x86_64/gaussian/16/C.01/g16/l9999.exe)
 Electronic transition elements 
                 1             2             3 
      1  -0.142064D+04 -0.142062D+04 -0.142061D+04
      2  -0.295801D+01 -0.167343D+01  0.431028D+00
      3  -0.164079D+00  0.481604D+00 -0.156151D+01
      4   0.828050D-01  0.560710D-02  0.186590D+00
      5   0.254603D+00  0.171851D+00 -0.509863D-01
      6   0.107736D-01 -0.427816D-01  0.191195D+00
      7  -0.674448D-02 -0.181426D-02 -0.223324D-01
      8  -0.272941D-01 -0.202911D-01  0.132711D+00
      9  -0.126137D+00 -0.100564D+00  0.148477D-01
     10  -0.783023D+00 -0.417995D+00  0.394028D+00
     11  -0.447056D+00  0.888721D+00 -0.153183D+01
     12   0.163825D+00  0.117256D+00  0.772263D+00
     13   0.144086D-01 -0.208028D-02  0.159369D+00
     14  -0.791311D+00 -0.616569D+00  0.358436D+00
     15   0.216045D-01  0.243695D-01 -0.511671D-01
     16  -0.430861D-02  0.540436D-01 -0.231515D+00
 Unable to Open any file for archive entry.
 1\1\GINC-LEMON\FOpt\RB3LYP TD-FC\CC-pVDZ\C28H31N2O3(1+)\YAGI\11-Jun-20
 21\0\\#p B3LYP/cc-pVDZ TD=(singlets,root=1) geom=checkpoint guess=read
  opt=(maxcycles=20)\\rhodamine TDDFT\\1,1\C,-3.6041284606,-0.907173243
 4,0.1958157467\C,-2.356010846,-1.5761293888,0.238328053\C,-1.155344236
 2,-0.8564469727,0.0806759772\C,-1.1244671906,0.5260963977,-0.115514428
 2\C,-2.3819144739,1.1692107817,-0.1768804891\C,-3.5869215145,0.4954144
 932,-0.0295548732\C,0.1839775423,1.1912335346,-0.3011610402\C,1.319085
 3361,0.3705826224,-0.2516971167\C,1.1964932994,-1.046815191,-0.0325481
 519\C,2.2739830701,-1.9082121561,0.029716764\H,2.0577134275,-2.9636045
 041,0.1768213141\C,3.5995409725,-1.4219809344,-0.1121024724\C,3.751939
 391,-0.0023514614,-0.2996366464\C,2.6722810256,0.8410032183,-0.3612714
 097\H,-2.2650332178,-2.6477166484,0.3957228041\H,-2.4097126823,2.24347
 83975,-0.3613097524\H,-4.5080783809,1.0661622994,-0.1013057003\H,4.747
 0937198,0.4323663112,-0.3663219251\H,2.8404220621,1.9111894121,-0.4764
 39789\C,0.2655003156,2.6270111529,-0.6470370072\C,-0.1674056474,3.6905
 064129,0.192651706\C,0.7544863885,2.958526027,-1.9291017895\C,-0.13250
 96157,5.012428379,-0.2818014626\C,0.7927051291,4.2772657464,-2.3812651
 595\H,1.0762365175,2.1528083356,-2.5918617032\C,0.3387405392,5.3122279
 496,-1.5575696167\H,-0.4728159366,5.7993087046,0.3922003256\H,1.165128
 4937,4.493221848,-3.3849073244\H,0.357562932,6.3464421184,-1.905641733
 8\O,-0.0364650567,-1.6262857653,0.1246886974\N,-4.7892945505,-1.612629
 967,0.3724280317\N,4.6835202267,-2.2508501078,-0.0544005495\C,-0.61226
 0861,3.5404951843,1.6120662483\O,-1.090907071,4.4358322089,2.274173918
 2\O,-0.4101676948,2.301499909,2.1250105697\H,-0.7192202726,2.349878210
 7,3.0489790216\C,6.0524211751,-1.773231309,-0.2915346054\H,6.612351505
 5,-2.6137452759,-0.7294131172\H,6.035541227,-0.9906399145,-1.063574156
 4\C,6.7595035942,-1.2790040568,0.9740175224\H,6.2389992423,-0.41610501
 25,1.4176629045\H,6.8129047131,-2.0711238138,1.7375193392\H,7.78966755
 7,-0.9726110416,0.7326951812\C,4.546997556,-3.680514083,0.2450467369\H
 ,3.747003461,-3.818752101,0.9876445371\H,5.4774286425,-3.996246532,0.7
 407591785\C,4.2973125288,-4.5469939848,-0.9939695796\H,4.2336066568,-5
 .6076017239,-0.7031656142\H,3.3585974929,-4.2711690573,-1.4986836668\H
 ,5.1165376538,-4.4451418883,-1.7230523247\C,-4.8001834441,-3.073385840
 8,0.4326707344\H,-5.7019804332,-3.3804233298,0.9736938903\H,-3.9515945
 468,-3.4114798213,1.0440338942\C,-6.0535813337,-0.8663507124,0.3101449
 835\H,-5.9610346926,-0.0078930046,0.9982104433\H,-6.1493180724,-0.4283
 065129,-0.7037819763\C,-7.3175991157,-1.6438337975,0.6527513694\H,-7.2
 963309031,-2.042891615,1.6784414471\H,-8.1674379384,-0.9477768743,0.58
 97046487\H,-7.5182896341,-2.4680267837,-0.0474396524\C,-4.7674290793,-
 3.7466976479,-0.9499902845\H,-3.8557978074,-3.4775642535,-1.505221019\
 H,-4.7884695401,-4.8407488482,-0.8239653226\H,-5.6380011447,-3.4555424
 785,-1.557383528\\Version=ES64L-G16RevC.01\State=1-A\HF=-1420.7305445\
 RMSD=7.219e-09\RMSF=5.583e-06\Dipole=-0.8712782,-2.7594093,-0.4328839\
 PG=C01 [X(C28H31N2O3)]\\@
 The archive entry for this job was punched.


 CONTRAIWISE...CONTINUED TWEEDLEDEE, IF IT WAS SO, IT MIGHT BE,
 AND IF IT WERE SO, IT WOULD BE.....
 BUT AS IT ISN'T, IT AIN'T....
 THAT'S LOGIC.....
 ALICE THROUGH THE LOOKING GLASS
 Job cpu time:       3 days 11 hours 54 minutes 48.5 seconds.
 Elapsed time:       0 days  5 hours 15 minutes 47.8 seconds.
 File lengths (MBytes):  RWF=   1831 Int=      0 D2E=      0 Chk=     79 Scr=      1
 Normal termination of Gaussian 16 at Fri Jun 11 07:40:21 2021.

real	315m49.812s
user	5033m8.338s
sys	1m40.277s
