 Entering Gaussian System, Link 0=g16
 Initial command:
 /APL/ISV/x86_64/gaussian/16/C.01/g16/l1.exe "/scr/yagi/rhodamine.62284/Gau-65162.inp" -scrdir="/scr/yagi/rhodamine.62284/"
 Entering Link 1 = /APL/ISV/x86_64/gaussian/16/C.01/g16/l1.exe PID=     65163.
  
 Copyright (c) 1988-2019, Gaussian, Inc.  All Rights Reserved.
  
 This is part of the Gaussian(R) 16 program.  It is based on
 the Gaussian(R) 09 system (copyright 2009, Gaussian, Inc.),
 the Gaussian(R) 03 system (copyright 2003, Gaussian, Inc.),
 the Gaussian(R) 98 system (copyright 1998, Gaussian, Inc.),
 the Gaussian(R) 94 system (copyright 1995, Gaussian, Inc.),
 the Gaussian 92(TM) system (copyright 1992, Gaussian, Inc.),
 the Gaussian 90(TM) system (copyright 1990, Gaussian, Inc.),
 the Gaussian 88(TM) system (copyright 1988, Gaussian, Inc.),
 the Gaussian 86(TM) system (copyright 1986, Carnegie Mellon
 University), and the Gaussian 82(TM) system (copyright 1983,
 Carnegie Mellon University). Gaussian is a federally registered
 trademark of Gaussian, Inc.
  
 This software contains proprietary and confidential information,
 including trade secrets, belonging to Gaussian, Inc.
  
 This software is provided under written license and may be
 used, copied, transmitted, or stored only in accord with that
 written license.
  
 The following legend is applicable only to US Government
 contracts under FAR:
  
                    RESTRICTED RIGHTS LEGEND
  
 Use, reproduction and disclosure by the US Government is
 subject to restrictions as set forth in subparagraphs (a)
 and (c) of the Commercial Computer Software - Restricted
 Rights clause in FAR 52.227-19.
  
 Gaussian, Inc.
 340 Quinnipiac St., Bldg. 40, Wallingford CT 06492
  
  
 ---------------------------------------------------------------
 Warning -- This program may not be used in any manner that
 competes with the business of Gaussian, Inc. or will provide
 assistance to any competitor of Gaussian, Inc.  The licensee
 of this program is prohibited from giving any competitor of
 Gaussian, Inc. access to this program.  By using this program,
 the user acknowledges that Gaussian, Inc. is engaged in the
 business of creating and licensing software in the field of
 computational chemistry and represents and warrants to the
 licensee that it is not a competitor of Gaussian, Inc. and that
 it will not use this program in any manner prohibited above.
 ---------------------------------------------------------------
  

 Cite this work as:
 Gaussian 16, Revision C.01,
 M. J. Frisch, G. W. Trucks, H. B. Schlegel, G. E. Scuseria, 
 M. A. Robb, J. R. Cheeseman, G. Scalmani, V. Barone, 
 G. A. Petersson, H. Nakatsuji, X. Li, M. Caricato, A. V. Marenich, 
 J. Bloino, B. G. Janesko, R. Gomperts, B. Mennucci, H. P. Hratchian, 
 J. V. Ortiz, A. F. Izmaylov, J. L. Sonnenberg, D. Williams-Young, 
 F. Ding, F. Lipparini, F. Egidi, J. Goings, B. Peng, A. Petrone, 
 T. Henderson, D. Ranasinghe, V. G. Zakrzewski, J. Gao, N. Rega, 
 G. Zheng, W. Liang, M. Hada, M. Ehara, K. Toyota, R. Fukuda, 
 J. Hasegawa, M. Ishida, T. Nakajima, Y. Honda, O. Kitao, H. Nakai, 
 T. Vreven, K. Throssell, J. A. Montgomery, Jr., J. E. Peralta, 
 F. Ogliaro, M. J. Bearpark, J. J. Heyd, E. N. Brothers, K. N. Kudin, 
 V. N. Staroverov, T. A. Keith, R. Kobayashi, J. Normand, 
 K. Raghavachari, A. P. Rendell, J. C. Burant, S. S. Iyengar, 
 J. Tomasi, M. Cossi, J. M. Millam, M. Klene, C. Adamo, R. Cammi, 
 J. W. Ochterski, R. L. Martin, K. Morokuma, O. Farkas, 
 J. B. Foresman, and D. J. Fox, Gaussian, Inc., Wallingford CT, 2019.
 
 ******************************************
 Gaussian 16:  ES64L-G16RevC.01  3-Jul-2019
                10-Jun-2021 
 ******************************************
 %NprocShared=16
 Will use up to   16 processors via shared memory.
 %oldchk=rhodamine1.chk
 %chk=rhodamine1_tddft.chk
 %mem=1gb
 Copying data from "rhodamine1.chk" to current chk file "rhodamine1_tddft.chk"
 IOpt=  2 FromEx=T IUOpen= 4 IOptOp= 5 NList=   0 IFRang= 0 IUIn= 4 IUOut= 2.
 ----------------------------------------------------------------
 #p B3LYP/cc-pVDZ TD=(singlets,root=1) geom=checkpoint guess=read
 ----------------------------------------------------------------
 1/29=2,38=1,172=1/1;
 2/12=2,40=1/2;
 3/5=16,11=9,14=-4,25=1,30=1,74=-5,116=-2/1,2,3,8;
 4/5=1/1;
 5/5=2,38=6/2;
 8/6=1,10=1,107=1/1;
 9/8=1,42=1,48=1,70=2/14;
 6/7=2,8=2,9=2,10=2/1;
 99/5=1,9=1/99;
 Leave Link    1 at Thu Jun 10 22:31:28 2021, MaxMem=   134217728 cpu:               0.6 elap:               0.0
 (Enter /APL/ISV/x86_64/gaussian/16/C.01/g16/l101.exe)
 ---------------
 rhodamine TDDFT
 ---------------
 Structure from the checkpoint file:  "rhodamine1_tddft.chk"
 Charge =  1 Multiplicity = 1
 Redundant internal coordinates found in file.  (old form).
 C,0,3.5265058648,-1.81369124,-0.2283592853
 C,0,2.2787024727,-2.4554250473,-0.0811493596
 C,0,1.1243306181,-1.6935253328,-0.0347101104
 C,0,1.1346480281,-0.2687585134,-0.1274045639
 C,0,2.4122231696,0.3526006778,-0.277045701
 C,0,3.5655454755,-0.3839063348,-0.3263878671
 C,0,-0.0886476384,0.433889875,-0.0780242529
 C,0,-1.2880015197,-0.2932096744,0.0811196846
 C,0,-1.2334829102,-1.7173295884,0.1681362436
 C,0,-2.3633702558,-2.5022413615,0.3181213748
 H,0,-2.2533694426,-3.5854648061,0.3801093999
 C,0,-3.6305681211,-1.8858469672,0.3872875785
 C,0,-3.7143769015,-0.4572705044,0.3001991531
 C,0,-2.5845444918,0.3022427385,0.1531988965
 H,0,2.2025586339,-3.540514908,-0.0030568012
 H,0,2.4592548345,1.438835405,-0.353422882
 H,0,4.5301782979,0.1141685695,-0.441916864
 H,0,-4.694347878,0.0211599384,0.3521780328
 H,0,-2.665559217,1.3872071489,0.0880720413
 C,0,-0.1052330887,1.9315034505,-0.09644867
 C,0,-0.2142397612,2.7180180203,-1.2672703826
 C,0,-0.0043089525,2.5751627047,1.1481484725
 C,0,-0.2188512451,4.1186094736,-1.1562718077
 C,0,-0.0104547308,3.9690197311,1.2406045223
 H,0,0.0800435608,1.9728372968,2.0550314175
 C,0,-0.118189233,4.7448043794,0.0837757247
 H,0,-0.304156939,4.6972841863,-2.0766032034
 H,0,0.0693191472,4.4445879934,2.2201826259
 H,0,-0.1237246677,5.8342784981,0.1477743008
 O,0,-0.0443980852,-2.3727133383,0.1068646591
 N,0,4.6743915913,-2.5232666912,-0.2768958893
 H,0,5.5682124958,-2.0626779589,-0.3844635681
 H,0,4.6724307321,-3.5324814901,-0.2106456384
 N,0,-4.7555188322,-2.6184034281,0.5333574885
 H,0,-4.7218463656,-3.627093486,0.5990879243
 H,0,-5.6633654875,-2.1757974804,0.5838323452
 C,0,-0.329064893,2.1824423017,-2.6614342184
 O,0,-0.4213042819,2.877640349,-3.6467740705
 O,0,-0.3207922725,0.8287023687,-2.7285908335
 H,0,-0.4000750004,0.6092229446,-3.6759132465
 Recover connectivity data from disk.
 ITRead=  0  0  0  0  0  0  0  0  0  0  0  0  0  0  0  0  0  0  0  0
 ITRead=  0  0  0  0  0  0  0  0  0  0  0  0  0  0  0  0  0  0  0  0
 MicOpt= -1 -1 -1 -1 -1 -1 -1 -1 -1 -1 -1 -1 -1 -1 -1 -1 -1 -1 -1 -1
 MicOpt= -1 -1 -1 -1 -1 -1 -1 -1 -1 -1 -1 -1 -1 -1 -1 -1 -1 -1 -1 -1
                           ----------------------------
                           !    Current Parameters    !
                           ! (Angstroms and Degrees)  !
 --------------------------                            --------------------------
 ! Name  Definition              Value                                          !
 --------------------------------------------------------------------------------
 ! R1    R(1,2)                  1.4109                                         !
 ! R2    R(1,6)                  1.4337                                         !
 ! R3    R(1,31)                 1.3504                                         !
 ! R4    R(2,3)                  1.3839                                         !
 ! R5    R(2,15)                 1.0906                                         !
 ! R6    R(3,4)                  1.4278                                         !
 ! R7    R(3,30)                 1.3591                                         !
 ! R8    R(4,5)                  1.4285                                         !
 ! R9    R(4,7)                  1.4116                                         !
 ! R10   R(5,6)                  1.3693                                         !
 ! R11   R(5,16)                 1.0899                                         !
 ! R12   R(6,17)                 1.0918                                         !
 ! R13   R(7,8)                  1.4115                                         !
 ! R14   R(7,20)                 1.4978                                         !
 ! R15   R(8,9)                  1.4278                                         !
 ! R16   R(8,14)                 1.4286                                         !
 ! R17   R(9,10)                 1.3839                                         !
 ! R18   R(9,30)                 1.3591                                         !
 ! R19   R(10,11)                1.0906                                         !
 ! R20   R(10,12)                1.4109                                         !
 ! R21   R(12,13)                1.4337                                         !
 ! R22   R(12,34)                1.3504                                         !
 ! R23   R(13,14)                1.3693                                         !
 ! R24   R(13,18)                1.0918                                         !
 ! R25   R(14,19)                1.0899                                         !
 ! R26   R(20,21)                1.4147                                         !
 ! R27   R(20,22)                1.4048                                         !
 ! R28   R(21,23)                1.405                                          !
 ! R29   R(21,37)                1.4979                                         !
 ! R30   R(22,24)                1.3969                                         !
 ! R31   R(22,25)                1.0919                                         !
 ! R32   R(23,26)                1.3928                                         !
 ! R33   R(23,27)                1.0905                                         !
 ! R34   R(24,26)                1.397                                          !
 ! R35   R(24,28)                1.0918                                         !
 ! R36   R(26,29)                1.0914                                         !
 ! R37   R(31,32)                1.0113                                         !
 ! R38   R(31,33)                1.0114                                         !
 ! R39   R(34,35)                1.0114                                         !
 ! R40   R(34,36)                1.0113                                         !
 ! R41   R(37,38)                1.2094                                         !
 ! R42   R(37,39)                1.3554                                         !
 ! R43   R(39,40)                0.9756                                         !
 ! A1    A(2,1,6)              119.002                                          !
 ! A2    A(2,1,31)             121.1013                                         !
 ! A3    A(6,1,31)             119.8967                                         !
 ! A4    A(1,2,3)              119.3946                                         !
 ! A5    A(1,2,15)             121.4529                                         !
 ! A6    A(3,2,15)             119.1525                                         !
 ! A7    A(2,3,4)              122.7625                                         !
 ! A8    A(2,3,30)             116.4652                                         !
 ! A9    A(4,3,30)             120.7723                                         !
 ! A10   A(3,4,5)              116.5706                                         !
 ! A11   A(3,4,7)              119.2205                                         !
 ! A12   A(5,4,7)              124.207                                          !
 ! A13   A(4,5,6)              121.5393                                         !
 ! A14   A(4,5,16)             118.6477                                         !
 ! A15   A(6,5,16)             119.813                                          !
 ! A16   A(1,6,5)              120.7309                                         !
 ! A17   A(1,6,17)             119.0957                                         !
 ! A18   A(5,6,17)             120.1734                                         !
 ! A19   A(4,7,8)              118.9386                                         !
 ! A20   A(4,7,20)             120.4553                                         !
 ! A21   A(8,7,20)             120.4654                                         !
 ! A22   A(7,8,9)              119.2226                                         !
 ! A23   A(7,8,14)             124.2037                                         !
 ! A24   A(9,8,14)             116.5719                                         !
 ! A25   A(8,9,10)             122.7605                                         !
 ! A26   A(8,9,30)             120.7719                                         !
 ! A27   A(10,9,30)            116.4675                                         !
 ! A28   A(9,10,11)            119.1542                                         !
 ! A29   A(9,10,12)            119.3951                                         !
 ! A30   A(11,10,12)           121.4507                                         !
 ! A31   A(10,12,13)           119.0036                                         !
 ! A32   A(10,12,34)           121.1003                                         !
 ! A33   A(13,12,34)           119.896                                          !
 ! A34   A(12,13,14)           120.7294                                         !
 ! A35   A(12,13,18)           119.0937                                         !
 ! A36   A(14,13,18)           120.1769                                         !
 ! A37   A(8,14,13)            121.5392                                         !
 ! A38   A(8,14,19)            118.644                                          !
 ! A39   A(13,14,19)           119.8167                                         !
 ! A40   A(7,20,21)            124.5361                                         !
 ! A41   A(7,20,22)            116.5145                                         !
 ! A42   A(21,20,22)           118.9494                                         !
 ! A43   A(20,21,23)           119.2811                                         !
 ! A44   A(20,21,37)           125.2697                                         !
 ! A45   A(23,21,37)           115.4492                                         !
 ! A46   A(20,22,24)           121.0304                                         !
 ! A47   A(20,22,25)           119.2495                                         !
 ! A48   A(24,22,25)           119.7201                                         !
 ! A49   A(21,23,26)           121.2168                                         !
 ! A50   A(21,23,27)           117.5536                                         !
 ! A51   A(26,23,27)           121.2296                                         !
 ! A52   A(22,24,26)           119.9748                                         !
 ! A53   A(22,24,28)           119.5819                                         !
 ! A54   A(26,24,28)           120.4432                                         !
 ! A55   A(23,26,24)           119.5475                                         !
 ! A56   A(23,26,29)           120.0428                                         !
 ! A57   A(24,26,29)           120.4096                                         !
 ! A58   A(3,30,9)             121.0676                                         !
 ! A59   A(1,31,32)            121.0532                                         !
 ! A60   A(1,31,33)            121.3548                                         !
 ! A61   A(32,31,33)           117.5916                                         !
 ! A62   A(12,34,35)           121.3546                                         !
 ! A63   A(12,34,36)           121.0541                                         !
 ! A64   A(35,34,36)           117.591                                          !
 ! A65   A(21,37,38)           123.96                                           !
 ! A66   A(21,37,39)           113.7503                                         !
 ! A67   A(38,37,39)           122.2897                                         !
 ! A68   A(37,39,40)           105.8006                                         !
 ! D1    D(6,1,2,3)             -0.0042                                         !
 ! D2    D(6,1,2,15)           179.9874                                         !
 ! D3    D(31,1,2,3)           179.9595                                         !
 ! D4    D(31,1,2,15)           -0.049                                          !
 ! D5    D(2,1,6,5)              0.0676                                         !
 ! D6    D(2,1,6,17)          -179.9047                                         !
 ! D7    D(31,1,6,5)          -179.8965                                         !
 ! D8    D(31,1,6,17)            0.1312                                         !
 ! D9    D(2,1,31,32)          179.8646                                         !
 ! D10   D(2,1,31,33)            0.0903                                         !
 ! D11   D(6,1,31,32)           -0.1721                                         !
 ! D12   D(6,1,31,33)         -179.9464                                         !
 ! D13   D(1,2,3,4)             -0.1186                                         !
 ! D14   D(1,2,3,30)           179.9308                                         !
 ! D15   D(15,2,3,4)           179.8896                                         !
 ! D16   D(15,2,3,30)           -0.061                                          !
 ! D17   D(2,3,4,5)              0.1712                                         !
 ! D18   D(2,3,4,7)            179.6955                                         !
 ! D19   D(30,3,4,5)          -179.8802                                         !
 ! D20   D(30,3,4,7)            -0.356                                          !
 ! D21   D(2,3,30,9)           179.7553                                         !
 ! D22   D(4,3,30,9)            -0.1963                                         !
 ! D23   D(3,4,5,6)             -0.1045                                         !
 ! D24   D(3,4,5,16)           179.8602                                         !
 ! D25   D(7,4,5,6)           -179.6025                                         !
 ! D26   D(7,4,5,16)             0.3622                                         !
 ! D27   D(3,4,7,8)              0.8953                                         !
 ! D28   D(3,4,7,20)           176.6033                                         !
 ! D29   D(5,4,7,8)           -179.6192                                         !
 ! D30   D(5,4,7,20)            -3.9111                                         !
 ! D31   D(4,5,6,1)             -0.0101                                         !
 ! D32   D(4,5,6,17)           179.9619                                         !
 ! D33   D(16,5,6,1)          -179.9744                                         !
 ! D34   D(16,5,6,17)           -0.0024                                         !
 ! D35   D(4,7,8,9)             -0.8998                                         !
 ! D36   D(4,7,8,14)           179.6113                                         !
 ! D37   D(20,7,8,9)          -176.6074                                         !
 ! D38   D(20,7,8,14)            3.9037                                         !
 ! D39   D(4,7,20,21)           92.1961                                         !
 ! D40   D(4,7,20,22)          -87.8101                                         !
 ! D41   D(8,7,20,21)          -92.1617                                         !
 ! D42   D(8,7,20,22)           87.8321                                         !
 ! D43   D(7,8,9,10)          -179.6867                                         !
 ! D44   D(7,8,9,30)             0.3653                                         !
 ! D45   D(14,8,9,10)           -0.1593                                         !
 ! D46   D(14,8,9,30)          179.8927                                         !
 ! D47   D(7,8,14,13)          179.5945                                         !
 ! D48   D(7,8,14,19)           -0.368                                          !
 ! D49   D(9,8,14,13)            0.0932                                         !
 ! D50   D(9,8,14,19)         -179.8693                                         !
 ! D51   D(8,9,10,11)         -179.8906                                         !
 ! D52   D(8,9,10,12)            0.1184                                         !
 ! D53   D(30,9,10,11)           0.0595                                         !
 ! D54   D(30,9,10,12)        -179.9315                                         !
 ! D55   D(8,9,30,3)             0.1917                                         !
 ! D56   D(10,9,30,3)         -179.7595                                         !
 ! D57   D(9,10,12,13)          -0.0081                                         !
 ! D58   D(9,10,12,34)         179.9989                                         !
 ! D59   D(11,10,12,13)       -179.9988                                         !
 ! D60   D(11,10,12,34)          0.0082                                         !
 ! D61   D(10,12,13,14)         -0.0548                                         !
 ! D62   D(10,12,13,18)        179.9168                                         !
 ! D63   D(34,12,13,14)        179.9383                                         !
 ! D64   D(34,12,13,18)         -0.0901                                         !
 ! D65   D(10,12,34,35)          0.1265                                         !
 ! D66   D(10,12,34,36)        179.9349                                         !
 ! D67   D(13,12,34,35)       -179.8665                                         !
 ! D68   D(13,12,34,36)         -0.058                                          !
 ! D69   D(12,13,14,8)           0.0094                                         !
 ! D70   D(12,13,14,19)        179.9714                                         !
 ! D71   D(18,13,14,8)        -179.9618                                         !
 ! D72   D(18,13,14,19)          0.0002                                         !
 ! D73   D(7,20,21,23)         179.9918                                         !
 ! D74   D(7,20,21,37)          -0.011                                          !
 ! D75   D(22,20,21,23)         -0.0019                                         !
 ! D76   D(22,20,21,37)        179.9953                                         !
 ! D77   D(7,20,22,24)        -179.9921                                         !
 ! D78   D(7,20,22,25)           0.0052                                         !
 ! D79   D(21,20,22,24)          0.002                                          !
 ! D80   D(21,20,22,25)        179.9993                                         !
 ! D81   D(20,21,23,26)         -0.0003                                         !
 ! D82   D(20,21,23,27)       -179.9987                                         !
 ! D83   D(37,21,23,26)       -179.9977                                         !
 ! D84   D(37,21,23,27)          0.0038                                         !
 ! D85   D(20,21,37,38)        179.9907                                         !
 ! D86   D(20,21,37,39)         -0.0136                                         !
 ! D87   D(23,21,37,38)         -0.012                                          !
 ! D88   D(23,21,37,39)        179.9837                                         !
 ! D89   D(20,22,24,26)          0.0                                            !
 ! D90   D(20,22,24,28)       -179.9985                                         !
 ! D91   D(25,22,24,26)       -179.9973                                         !
 ! D92   D(25,22,24,28)          0.0042                                         !
 ! D93   D(21,23,26,24)          0.0023                                         !
 ! D94   D(21,23,26,29)       -179.9988                                         !
 ! D95   D(27,23,26,24)       -179.9992                                         !
 ! D96   D(27,23,26,29)         -0.0004                                         !
 ! D97   D(22,24,26,23)         -0.0022                                         !
 ! D98   D(22,24,26,29)        179.9989                                         !
 ! D99   D(28,24,26,23)        179.9963                                         !
 ! D100  D(28,24,26,29)         -0.0026                                         !
 ! D101  D(21,37,39,40)       -179.9853                                         !
 ! D102  D(38,37,39,40)          0.0105                                         !
 --------------------------------------------------------------------------------
 NAtoms=     40 NQM=       40 NQMF=       0 NMMI=      0 NMMIF=      0
                NMic=       0 NMicF=      0.
                    Isotopes and Nuclear Properties:
 (Nuclear quadrupole moments (NQMom) in fm**2, nuclear magnetic moments (NMagM)
  in nuclear magnetons)

  Atom         1           2           3           4           5           6           7           8           9          10
 IAtWgt=          12          12          12          12          12          12          12          12          12          12
 AtmWgt=  12.0000000  12.0000000  12.0000000  12.0000000  12.0000000  12.0000000  12.0000000  12.0000000  12.0000000  12.0000000
 NucSpn=           0           0           0           0           0           0           0           0           0           0
 AtZEff=   3.6000000   3.6000000   3.6000000   3.6000000   3.6000000   3.6000000   3.6000000   3.6000000   3.6000000   3.6000000
 NQMom=    0.0000000   0.0000000   0.0000000   0.0000000   0.0000000   0.0000000   0.0000000   0.0000000   0.0000000   0.0000000
 NMagM=    0.0000000   0.0000000   0.0000000   0.0000000   0.0000000   0.0000000   0.0000000   0.0000000   0.0000000   0.0000000
 AtZNuc=   6.0000000   6.0000000   6.0000000   6.0000000   6.0000000   6.0000000   6.0000000   6.0000000   6.0000000   6.0000000

  Atom        11          12          13          14          15          16          17          18          19          20
 IAtWgt=           1          12          12          12           1           1           1           1           1          12
 AtmWgt=   1.0078250  12.0000000  12.0000000  12.0000000   1.0078250   1.0078250   1.0078250   1.0078250   1.0078250  12.0000000
 NucSpn=           1           0           0           0           1           1           1           1           1           0
 AtZEff=   1.0000000   3.6000000   3.6000000   3.6000000   1.0000000   1.0000000   1.0000000   1.0000000   1.0000000   3.6000000
 NQMom=    0.0000000   0.0000000   0.0000000   0.0000000   0.0000000   0.0000000   0.0000000   0.0000000   0.0000000   0.0000000
 NMagM=    2.7928460   0.0000000   0.0000000   0.0000000   2.7928460   2.7928460   2.7928460   2.7928460   2.7928460   0.0000000
 AtZNuc=   1.0000000   6.0000000   6.0000000   6.0000000   1.0000000   1.0000000   1.0000000   1.0000000   1.0000000   6.0000000

  Atom        21          22          23          24          25          26          27          28          29          30
 IAtWgt=          12          12          12          12           1          12           1           1           1          16
 AtmWgt=  12.0000000  12.0000000  12.0000000  12.0000000   1.0078250  12.0000000   1.0078250   1.0078250   1.0078250  15.9949146
 NucSpn=           0           0           0           0           1           0           1           1           1           0
 AtZEff=   3.6000000   3.6000000   3.6000000   3.6000000   1.0000000   3.6000000   1.0000000   1.0000000   1.0000000   5.6000000
 NQMom=    0.0000000   0.0000000   0.0000000   0.0000000   0.0000000   0.0000000   0.0000000   0.0000000   0.0000000   0.0000000
 NMagM=    0.0000000   0.0000000   0.0000000   0.0000000   2.7928460   0.0000000   2.7928460   2.7928460   2.7928460   0.0000000
 AtZNuc=   6.0000000   6.0000000   6.0000000   6.0000000   1.0000000   6.0000000   1.0000000   1.0000000   1.0000000   8.0000000

  Atom        31          32          33          34          35          36          37          38          39          40
 IAtWgt=          14           1           1          14           1           1          12          16          16           1
 AtmWgt=  14.0030740   1.0078250   1.0078250  14.0030740   1.0078250   1.0078250  12.0000000  15.9949146  15.9949146   1.0078250
 NucSpn=           2           1           1           2           1           1           0           0           0           1
 AtZEff=   4.5500000   1.0000000   1.0000000   4.5500000   1.0000000   1.0000000   3.6000000   5.6000000   5.6000000   1.0000000
 NQMom=    2.0440000   0.0000000   0.0000000   2.0440000   0.0000000   0.0000000   0.0000000   0.0000000   0.0000000   0.0000000
 NMagM=    0.4037610   2.7928460   2.7928460   0.4037610   2.7928460   2.7928460   0.0000000   0.0000000   0.0000000   2.7928460
 AtZNuc=   7.0000000   1.0000000   1.0000000   7.0000000   1.0000000   1.0000000   6.0000000   8.0000000   8.0000000   1.0000000
 Leave Link  101 at Thu Jun 10 22:31:28 2021, MaxMem=   134217728 cpu:               2.0 elap:               0.1
 (Enter /APL/ISV/x86_64/gaussian/16/C.01/g16/l202.exe)
                          Input orientation:                          
 ---------------------------------------------------------------------
 Center     Atomic      Atomic             Coordinates (Angstroms)
 Number     Number       Type             X           Y           Z
 ---------------------------------------------------------------------
      1          6           0        3.526506   -1.813691   -0.228359
      2          6           0        2.278702   -2.455425   -0.081149
      3          6           0        1.124331   -1.693525   -0.034710
      4          6           0        1.134648   -0.268759   -0.127405
      5          6           0        2.412223    0.352601   -0.277046
      6          6           0        3.565545   -0.383906   -0.326388
      7          6           0       -0.088648    0.433890   -0.078024
      8          6           0       -1.288002   -0.293210    0.081120
      9          6           0       -1.233483   -1.717330    0.168136
     10          6           0       -2.363370   -2.502241    0.318121
     11          1           0       -2.253369   -3.585465    0.380109
     12          6           0       -3.630568   -1.885847    0.387288
     13          6           0       -3.714377   -0.457271    0.300199
     14          6           0       -2.584544    0.302243    0.153199
     15          1           0        2.202559   -3.540515   -0.003057
     16          1           0        2.459255    1.438835   -0.353423
     17          1           0        4.530178    0.114169   -0.441917
     18          1           0       -4.694348    0.021160    0.352178
     19          1           0       -2.665559    1.387207    0.088072
     20          6           0       -0.105233    1.931503   -0.096449
     21          6           0       -0.214240    2.718018   -1.267270
     22          6           0       -0.004309    2.575163    1.148148
     23          6           0       -0.218851    4.118609   -1.156272
     24          6           0       -0.010455    3.969020    1.240605
     25          1           0        0.080044    1.972837    2.055031
     26          6           0       -0.118189    4.744804    0.083776
     27          1           0       -0.304157    4.697284   -2.076603
     28          1           0        0.069319    4.444588    2.220183
     29          1           0       -0.123725    5.834278    0.147774
     30          8           0       -0.044398   -2.372713    0.106865
     31          7           0        4.674392   -2.523267   -0.276896
     32          1           0        5.568212   -2.062678   -0.384464
     33          1           0        4.672431   -3.532481   -0.210646
     34          7           0       -4.755519   -2.618403    0.533357
     35          1           0       -4.721846   -3.627093    0.599088
     36          1           0       -5.663365   -2.175797    0.583832
     37          6           0       -0.329065    2.182442   -2.661434
     38          8           0       -0.421304    2.877640   -3.646774
     39          8           0       -0.320792    0.828702   -2.728591
     40          1           0       -0.400075    0.609223   -3.675913
 ---------------------------------------------------------------------
                    Distance matrix (angstroms):
                    1          2          3          4          5
     1  C    0.000000
     2  C    1.410853   0.000000
     3  C    2.412962   1.383916   0.000000
     4  C    2.849209   2.468301   1.427816   0.000000
     5  C    2.436558   2.818016   2.429820   1.428523   0.000000
     6  C    1.433673   2.450979   2.785625   2.441744   1.369317
     7  C    4.259525   3.735304   2.449304   1.411597   2.510094
     8  C    5.058372   4.174073   2.791710   2.431730   3.773197
     9  C    4.777446   3.597551   2.366643   2.791728   4.215919
    10  C    5.955114   4.659447   3.597578   4.174095   5.595591
    11  H    6.075885   4.693551   3.893632   4.768309   6.140681
    12  C    7.183866   5.955110   4.777461   5.058376   6.478218
    13  C    7.385772   6.328906   5.005355   4.871491   6.206797
    14  C    6.478248   5.595607   4.215941   3.773218   5.015509
    15  H    2.187583   1.090558   2.138913   3.443876   3.908373
    16  H    3.425434   3.907940   3.419837   2.172912   1.089932
    17  H    2.183943   3.435420   3.877289   3.431498   2.137701
    18  H    8.443112   7.412468   6.078392   5.855873   7.142067
    19  H    6.977646   6.264198   4.885617   4.150931   5.194959
    20  C    5.218564   4.992847   3.828377   2.525751   2.977102
    21  C    5.967320   5.863971   4.772074   3.469816   3.670702
    22  C    5.798574   5.659517   4.571070   3.318455   3.579188
    23  C    7.076787   7.114183   6.069839   4.705266   4.677437
    24  C    6.935971   6.946997   5.914269   4.597986   4.609893
    25  H    5.606226   5.385803   4.347387   3.301510   3.674617
    26  C    7.509667   7.590494   6.558200   5.172041   5.081794
    27  H    7.777068   7.862204   6.859472   5.525497   5.430783
    28  H    7.557351   7.601821   6.623747   5.372311   5.335701
    29  H    8.482753   8.633843   7.632743   6.237490   6.054775
    30  O    3.629909   2.332164   1.359142   2.423150   3.689134
    31  N    1.350368   2.404630   3.653773   4.199397   3.658964
    32  H    2.062748   3.326729   4.472884   4.789647   3.975598
    33  H    2.065841   2.628071   4.000216   4.814013   4.495199
    34  N    8.355819   7.062892   5.979191   6.375853   7.801291
    35  H    8.485777   7.130443   6.190167   6.790047   8.215870
    36  H    9.232795   7.974762   6.832862   7.096171   8.505824
    37  C    6.062538   5.913386   4.902567   3.817348   4.067959
    38  O    7.019926   6.960266   6.027566   4.970591   5.075409
    39  O    5.294819   4.954979   3.963207   3.176302   3.702178
    40  H    5.759703   5.430492   4.569992   3.964611   4.418957
                    6          7          8          9         10
     6  C    0.000000
     7  C    3.752813   0.000000
     8  C    4.871469   1.411542   0.000000
     9  C    5.005322   2.449283   1.427817   0.000000
    10  C    6.328884   3.735259   2.468281   1.383917   0.000000
    11  H    6.678988   4.588150   3.443875   2.138932   1.090558
    12  C    7.385744   4.259448   2.849184   2.412974   1.410857
    13  C    7.307206   3.752750   2.441764   2.785682   2.451009
    14  C    6.206804   2.510039   1.428560   2.429869   2.818022
    15  H    3.453470   4.588152   4.768237   3.893545   4.693493
    16  H    2.132369   2.752738   4.150992   4.885664   6.264245
    17  H    1.091761   4.644157   5.855830   6.078350   7.412440
    18  H    8.297612   4.644125   3.431544   3.877345   3.435429
    19  H    6.491170   2.752612   2.172905   3.419854   3.907947
    20  C    4.346103   1.497819   2.525831   3.828438   4.992909
    21  C    4.979354   2.578240   3.469670   4.771955   5.863731
    22  C    4.865615   2.468939   3.318731   4.571300   5.659872
    23  C    5.939951   3.841449   4.705143   6.069738   7.113963
    24  C    5.847325   3.773863   4.598166   5.914436   6.947259
    25  H    4.834679   2.635667   3.301945   4.347765   5.386414
    26  C    6.327860   4.314051   5.172045   6.558214   7.590483
    27  H    6.622413   4.713522   5.525283   6.859284   7.861821
    28  H    6.482513   4.625193   5.372582   6.624003   7.602253
    29  H    7.245783   5.405221   6.237475   7.632743   8.633805
    30  O    4.144243   2.813035   2.423128   1.359119   2.332175
    31  N    2.410156   5.609890   6.375850   5.979178   7.062902
    32  H    2.613871   6.190866   7.096158   6.832839   7.974763
    33  H    3.339479   6.198190   6.790049   6.190159   7.130462
    34  N    8.658652   5.609810   4.199372   3.653773   2.404620
    35  H    8.947381   6.198112   4.813976   4.000200   2.628049
    36  H    9.445220   6.190800   4.789642   4.472902   3.326731
    37  C    5.215992   3.128777   3.817069   4.902312   5.912902
    38  O    6.128427   4.338036   4.970176   6.027182   6.959536
    39  O    4.727010   2.689846   3.176264   3.963119   4.954772
    40  H    5.285052   3.615596   3.964605   4.569916   5.430290
                   11         12         13         14         15
    11  H    0.000000
    12  C    2.187562   0.000000
    13  C    3.453481   1.433680   0.000000
    14  C    3.908380   2.436534   1.369303   0.000000
    15  H    4.472598   6.075826   6.678958   6.140648   0.000000
    16  H    6.927517   6.977686   6.491238   5.195038   4.998258
    17  H    7.770427   8.443070   8.297588   7.142046   4.355126
    18  H    4.355100   2.183927   1.091760   2.137726   7.770395
    19  H    4.998265   3.425442   2.132396   1.089932   6.927432
    20  C    5.939574   5.218635   4.346204   2.977213   5.939496
    21  C    6.826844   5.966945   4.978994   3.670429   6.827033
    22  C    6.603142   5.799075   4.866135   3.579624   6.602806
    23  C    8.114955   7.076432   5.939586   4.677165   8.115129
    24  C    7.927254   6.936342   5.847687   4.610167   7.926994
    25  H    6.256589   5.607090   4.835544   3.675307   6.256025
    26  C    8.604661   7.509625   6.327795   5.081740   8.604646
    27  H    8.856568   7.776464   6.621799   5.430338   8.856893
    28  H    8.559352   7.557981   6.483125   5.336145   8.558935
    29  H    9.660276   8.482668   7.245661   6.054674   9.660284
    30  O    2.534755   3.629916   4.144278   3.689157   2.534691
    31  N    7.039446   8.355824   8.658684   7.801323   2.686957
    32  H    8.005036   9.232791   9.445240   8.505844   3.695551
    33  H    6.951151   8.485795   8.947426   8.215910   2.478594
    34  N    2.686902   1.350366   2.410152   3.658938   7.039380
    35  H    2.478520   2.065838   3.339477   4.495171   6.951076
    36  H    3.695502   2.062757   2.613874   3.975584   8.004977
    37  C    6.798727   6.061815   5.215333   4.067493   6.799142
    38  O    7.832240   7.018820   6.127361   5.074650   7.832883
    39  O    5.734435   5.294534   4.726914   3.702222   5.734622
    40  H    6.122208   5.759432   5.285024   4.419077   6.122410
                   16         17         18         19         20
    16  H    0.000000
    17  H    2.459938   0.000000
    18  H    7.326780   9.259110   0.000000
    19  H    5.144055   7.326674   2.460045   0.000000
    20  C    2.623996   4.990901   4.991057   2.624038   0.000000
    21  C    3.101451   5.474554   5.474215   3.101125   1.414677
    22  C    3.100823   5.398738   5.399348   3.101170   1.404815
    23  C    3.872726   6.252930   6.252566   3.872380   2.433016
    24  C    3.878430   6.189354   6.189810   3.878617   2.438886
    25  H    3.427310   5.430755   5.431719   3.427860   2.159839
    26  C    4.214711   6.582284   6.582255   4.214567   2.819098
    27  H    4.606874   6.859150   6.858491   4.606371   3.407363
    28  H    4.622747   6.763030   6.763777   4.623098   3.422403
    29  H    5.122783   7.397716   7.397616   5.122590   3.910453
    30  O    4.583454   5.235694   5.235727   4.583431   4.309445
    31  N    4.539927   2.646525   9.728470   8.324655   6.536234
    32  H    4.682646   2.412359  10.497865   8.939798   6.944381
    33  H    5.443576   3.656744  10.034026   8.839608   7.259080
    34  N    8.324694   9.728426   2.646481   4.539948   6.536319
    35  H    8.839634  10.033977   3.656703   5.443589   7.259125
    36  H    8.939853  10.497830   2.412319   4.682694   6.944461
    37  C    3.695212   5.728548   5.727888   3.694779   2.586933
    38  O    4.605860   6.513453   6.512296   4.605122   3.687802
    39  O    3.707067   5.410301   5.410291   3.707216   2.861959
    40  H    4.461274   5.917027   5.917104   4.461532   3.827261
                   21         22         23         24         25
    21  C    0.000000
    22  C    2.428729   0.000000
    23  C    1.404991   2.781836   0.000000
    24  C    2.809977   1.396934   2.410565   0.000000
    25  H    3.417541   1.091947   3.873777   2.157829   0.000000
    26  C    2.437707   2.419339   1.392828   1.397033   3.407190
    27  H    2.140233   3.871993   1.090482   3.408885   4.963932
    28  H    3.901766   2.156254   3.404372   1.091834   2.477285
    29  H    3.423686   3.411282   2.157106   2.164786   4.311598
    30  O    5.275665   5.056417   6.615378   6.442367   4.763890
    31  N    7.235373   7.065053   8.296484   8.148643   6.838192
    32  H    7.554545   7.410227   8.502594   8.375187   7.235780
    33  H    8.004046   7.811628   9.130062   8.961477   7.518766
    34  N    7.234837   7.065769   8.295996   8.149232   6.839419
    35  H    8.003890   7.811825   9.129850   8.961567   7.519119
    36  H    7.554402   7.410465   8.502368   8.375293   7.236183
    37  C    1.497905   3.843516   2.454874   4.303403   4.738813
    38  O    2.393824   4.822516   2.789909   5.024577   5.794877
    39  O    2.390884   4.263730   3.647748   5.070741   4.934851
    40  H    3.206729   5.224282   4.324029   5.967595   5.910472
                   26         27         28         29         30
    26  C    0.000000
    27  H    2.168889   0.000000
    28  H    2.165531   4.320383   0.000000
    29  H    1.091366   2.504629   2.502675   0.000000
    30  O    7.117938   7.404044   7.138252   8.207477   0.000000
    31  N    8.713425   8.953281   8.717402   9.646286   4.736762
    32  H    8.882355   9.112911   8.908789   9.749018   5.642599
    33  H    9.568186   9.796799   9.525293  10.529376   4.867684
    34  N    8.713425   8.952419   8.718388   9.646244   4.736762
    35  H    9.568066   9.796457   9.525506  10.529196   4.867677
    36  H    8.882216   9.112535   8.909030   9.748799   5.642612
    37  C    3.761163   2.582068   5.395016   4.611911   5.337973
    38  O    4.182724   2.406297   6.092390   4.819633   6.465143
    39  O    4.825589   3.923173   6.141431   5.776513   4.285471
    40  H    5.596227   4.390813   7.049419   6.480599   4.829892
                   31         32         33         34         35
    31  N    0.000000
    32  H    1.011251   0.000000
    33  H    1.011389   1.730017   0.000000
    34  N    9.465135  10.379338   9.501332   0.000000
    35  H    9.501319  10.454668   9.429584   1.011390   0.000000
    36  H   10.379345  11.273808  10.454687   1.011253   1.730015
    37  C    7.270784   7.614691   7.980080   7.269684   7.979865
    38  O    8.154262   8.421623   8.879346   8.152632   8.878827
    39  O    6.496027   6.966735   7.091703   6.495356   7.092026
    40  H    6.864111   7.320734   7.408921   6.863339   7.409435
                   36         37         38         39         40
    36  H    0.000000
    37  C    7.614511   0.000000
    38  O    8.421073   1.209423   0.000000
    39  O    6.967227   1.355430   2.247512   0.000000
    40  H    7.321475   1.873294   2.268704   0.975642   0.000000
 Stoichiometry    C20H15N2O3(1+)
 Framework group  C1[X(C20H15N2O3)]
 Deg. of freedom   114
 Full point group                 C1      NOp   1
 RotChk:  IX=0 Diff= 7.17D-15
 Largest Abelian subgroup         C1      NOp   1
 Largest concise Abelian subgroup C1      NOp   1
                         Standard orientation:                         
 ---------------------------------------------------------------------
 Center     Atomic      Atomic             Coordinates (Angstroms)
 Number     Number       Type             X           Y           Z
 ---------------------------------------------------------------------
      1          6           0        2.113334   -3.587089   -0.063239
      2          6           0        2.735966   -2.323416    0.014006
      3          6           0        1.963441   -1.178828   -0.077356
      4          6           0        0.546669   -1.214680   -0.250940
      5          6           0       -0.055552   -2.507970   -0.324487
      6          6           0        0.691458   -3.652075   -0.234891
      7          6           0       -0.169023   -0.000445   -0.328550
      8          6           0        0.541039    1.217044   -0.251192
      9          6           0        1.957951    1.187808   -0.077505
     10          6           0        2.725092    2.336019    0.013796
     11          1           0        3.803983    2.245147    0.144377
     12          6           0        2.096554    3.596758   -0.063624
     13          6           0        0.674429    3.655111   -0.235654
     14          6           0       -0.067207    2.507526   -0.325176
     15          1           0        3.814428   -2.227438    0.144485
     16          1           0       -1.135641   -2.574811   -0.454461
     17          1           0        0.207868   -4.629149   -0.293281
     18          1           0        0.186362    4.629936   -0.294371
     19          1           0       -1.147572    2.569230   -0.455392
     20          6           0       -1.644524   -0.004003   -0.586124
     21          6           0       -2.634994   -0.005899    0.423963
     22          6           0       -2.046152   -0.005365   -1.932303
     23          6           0       -3.991105   -0.009048    0.056604
     24          6           0       -3.399085   -0.008498   -2.280132
     25          1           0       -1.285732   -0.003901   -2.715953
     26          6           0       -4.376412   -0.010325   -1.281868
     27          1           0       -4.730775   -0.010428    0.857876
     28          1           0       -3.684688   -0.009526   -3.333950
     29          1           0       -5.435435   -0.012756   -1.545583
     30          8           0        2.624061    0.006047    0.005825
     31          7           0        2.833875   -4.726041    0.021034
     32          1           0        2.386597   -5.631423   -0.032390
     33          1           0        3.837685   -4.705922    0.142971
     34          7           0        2.811667    4.739067    0.021422
     35          1           0        3.815865    4.723637    0.140837
     36          1           0        2.360549    5.642354   -0.035134
     37          6           0       -2.367372   -0.004897    1.897766
     38          8           0       -3.233652   -0.006404    2.741721
     39          8           0       -1.049165   -0.002201    2.213224
     40          1           0       -1.009290   -0.002048    3.188051
 ---------------------------------------------------------------------
 Rotational constants (GHZ):           0.2299935           0.2232789           0.1391410
 Leave Link  202 at Thu Jun 10 22:31:28 2021, MaxMem=   134217728 cpu:               0.2 elap:               0.0
 (Enter /APL/ISV/x86_64/gaussian/16/C.01/g16/l301.exe)
 Standard basis: CC-pVDZ (5D, 7F)
 Ernie: Thresh=  0.10000D-02 Tol=  0.10000D-05 Strict=F.
 Ernie:  50 primitive shells out of 625 were deleted.
 There are   450 symmetry adapted cartesian basis functions of A   symmetry.
 There are   425 symmetry adapted basis functions of A   symmetry.
   425 basis functions,   930 primitive gaussians,   450 cartesian basis functions
    86 alpha electrons       86 beta electrons
       nuclear repulsion energy      2088.3295343072 Hartrees.
 IExCor=  402 DFT=T Ex+Corr=B3LYP ExCW=0 ScaHFX=  0.200000
 ScaDFX=  0.800000  0.720000  1.000000  0.810000 ScalE2=  1.000000  1.000000
 IRadAn=      5 IRanWt=     -1 IRanGd=            0 ICorTp=0 IEmpDi=  4
 NAtoms=   40 NActive=   40 NUniq=   40 SFac= 1.00D+00 NAtFMM=   60 NAOKFM=F Big=F
 Integral buffers will be    131072 words long.
 Regular integral format.
 Two-electron integral symmetry is turned on.
 Leave Link  301 at Thu Jun 10 22:31:28 2021, MaxMem=   134217728 cpu:               0.8 elap:               0.1
 (Enter /APL/ISV/x86_64/gaussian/16/C.01/g16/l302.exe)
 NPDir=0 NMtPBC=     1 NCelOv=     1 NCel=       1 NClECP=     1 NCelD=      1
         NCelK=      1 NCelE2=     1 NClLst=     1 CellRange=     0.0.
 One-electron integrals computed using PRISM.
 One-electron integral symmetry used in STVInt
 NBasis=   425 RedAO= T EigKep=  1.74D-04  NBF=   425
 NBsUse=   425 1.00D-06 EigRej= -1.00D+00 NBFU=   425
 Precomputing XC quadrature grid using
 IXCGrd= 4 IRadAn=           5 IRanWt=          -1 IRanGd=           0 AccXCQ= 0.00D+00.
 Generated NRdTot=       0 NPtTot=           0 NUsed=           0 NTot=          32
 NSgBfM=   447   447   447   447   447 MxSgAt=    40 MxSgA2=    40.
 Leave Link  302 at Thu Jun 10 22:31:29 2021, MaxMem=   134217728 cpu:               7.2 elap:               0.5
 (Enter /APL/ISV/x86_64/gaussian/16/C.01/g16/l303.exe)
 DipDrv:  MaxL=1.
 Leave Link  303 at Thu Jun 10 22:31:29 2021, MaxMem=   134217728 cpu:               1.0 elap:               0.1
 (Enter /APL/ISV/x86_64/gaussian/16/C.01/g16/l308.exe)
 Leave Link  308 at Thu Jun 10 22:31:29 2021, MaxMem=   134217728 cpu:               1.4 elap:               0.1
 (Enter /APL/ISV/x86_64/gaussian/16/C.01/g16/l401.exe)
 Initial guess from the checkpoint file:  "rhodamine1_tddft.chk"
 B after Tr=    -0.000000   -0.000000    0.000000
         Rot=    1.000000   -0.000000    0.000000    0.000000 Ang=   0.00 deg.
 Guess basis will be translated and rotated to current coordinates.
 JPrj=2 DoOrth=T DoCkMO=T.
 Leave Link  401 at Thu Jun 10 22:31:29 2021, MaxMem=   134217728 cpu:               4.3 elap:               0.3
 (Enter /APL/ISV/x86_64/gaussian/16/C.01/g16/l502.exe)
 Integral symmetry usage will be decided dynamically.
 Closed shell SCF:
 Using DIIS extrapolation, IDIIS=  1040.
 NGot=   134217728 LenX=   133799962 LenY=   133597012
 Requested convergence on RMS density matrix=1.00D-08 within 128 cycles.
 Requested convergence on MAX density matrix=1.00D-06.
 Requested convergence on             energy=1.00D-06.
 No special actions if energy rises.
 Fock matrices will be formed incrementally for  20 cycles.

 Cycle   1  Pass 1  IDiag  1:
 FoFJK:  IHMeth= 1 ICntrl=       0 DoSepK=F KAlg= 0 I1Cent=           0 FoldK=F
 IRaf= 820000000 NMat=       1 IRICut=       1 DoRegI=T DoRafI=F ISym2E= 0 IDoP0=0 IntGTp=1.
 FoFCou: FMM=F IPFlag=           0 FMFlag=      100000 FMFlg1=           0
         NFxFlg=           0 DoJE=F BraDBF=F KetDBF=F FulRan=T
         wScrn=  0.000000 ICntrl=         0 IOpCl=  0 I1Cent=           0 NGrid=           0
         NMat0=    1 NMatS0=      1 NMatT0=    0 NMatD0=    1 NMtDS0=    0 NMtDT0=    0
 Symmetry not used in FoFCou.
 E= -1106.24733873864    
 DIIS: error= 3.00D-08 at cycle   1 NSaved=   1.
 NSaved= 1 IEnMin= 1 EnMin= -1106.24733873864     IErMin= 1 ErrMin= 3.00D-08
 ErrMax= 3.00D-08  0.00D+00 EMaxC= 1.00D-01 BMatC= 5.59D-13 BMatP= 5.59D-13
 IDIUse=1 WtCom= 1.00D+00 WtEn= 0.00D+00
 Coeff-Com:  0.100D+01
 Coeff:      0.100D+01
 Gap=     0.114 Goal=   None    Shift=    0.000
 RMSDP=6.05D-09 MaxDP=2.47D-07              OVMax= 8.04D-07

 SCF Done:  E(RB3LYP) =  -1106.24733874     A.U. after    1 cycles
            NFock=  1  Conv=0.61D-08     -V/T= 2.0065
 KE= 1.099053845614D+03 PE=-6.731486788246D+03 EE= 2.437856069586D+03
 Leave Link  502 at Thu Jun 10 22:31:34 2021, MaxMem=   134217728 cpu:              81.9 elap:               5.2
 (Enter /APL/ISV/x86_64/gaussian/16/C.01/g16/l801.exe)
 DoSCS=F DFT=T ScalE2(SS,OS)=  1.000000  1.000000
 ExpMin= 1.22D-01 ExpMax= 1.17D+04 ExpMxC= 4.01D+02 IAcc=3 IRadAn=         5 AccDes= 0.00D+00
 HarFok:  IExCor=  205 AccDes= 0.00D+00 IRadAn=         5 IDoV=-2 UseB2=F ITyADJ=14
 ICtDFT= 12500011 ScaDFX=  1.000000  1.000000  1.000000  1.000000
 GSVD:  LWork=        -825 too small for GESVD, short by        3500 words or        3500 for optimal perf.
 Largest valence mixing into a core orbital is  3.95D-05
 Largest core mixing into a valence orbital is  2.72D-05
 Range of M.O.s used for correlation:    26   425
 NBasis=   425 NAE=    86 NBE=    86 NFC=    25 NFV=     0
 NROrb=    400 NOA=    61 NOB=    61 NVA=   339 NVB=   339

 **** Warning!!: The largest alpha MO coefficient is  0.12577062D+02

 Leave Link  801 at Thu Jun 10 22:31:35 2021, MaxMem=   134217728 cpu:               1.5 elap:               0.1
 (Enter /APL/ISV/x86_64/gaussian/16/C.01/g16/l914.exe)
 RHF ground state
 Two-electron integrals replicated using symmetry.
 MDV=   134217728 DFT=T DoStab=F Mixed=T DoRPA=T DoScal=F NonHer=T
 Making orbital integer symmetry assigments:
 Orbital symmetries:
       Occupied  (A) (A) (A) (A) (A) (A) (A) (A) (A) (A) (A) (A)
                 (A) (A) (A) (A) (A) (A) (A) (A) (A) (A) (A) (A)
                 (A) (A) (A) (A) (A) (A) (A) (A) (A) (A) (A) (A)
                 (A) (A) (A) (A) (A) (A) (A) (A) (A) (A) (A) (A)
                 (A) (A) (A) (A) (A) (A) (A) (A) (A) (A) (A) (A)
                 (A) (A) (A) (A) (A) (A) (A) (A) (A) (A) (A) (A)
                 (A) (A) (A) (A) (A) (A) (A) (A) (A) (A) (A) (A)
                 (A) (A)
       Virtual   (A) (A) (A) (A) (A) (A) (A) (A) (A) (A) (A) (A)
                 (A) (A) (A) (A) (A) (A) (A) (A) (A) (A) (A) (A)
                 (A) (A) (A) (A) (A) (A) (A) (A) (A) (A) (A) (A)
                 (A) (A) (A) (A) (A) (A) (A) (A) (A) (A) (A) (A)
                 (A) (A) (A) (A) (A) (A) (A) (A) (A) (A) (A) (A)
                 (A) (A) (A) (A) (A) (A) (A) (A) (A) (A) (A) (A)
                 (A) (A) (A) (A) (A) (A) (A) (A) (A) (A) (A) (A)
                 (A) (A) (A) (A) (A) (A) (A) (A) (A) (A) (A) (A)
                 (A) (A) (A) (A) (A) (A) (A) (A) (A) (A) (A) (A)
                 (A) (A) (A) (A) (A) (A) (A) (A) (A) (A) (A) (A)
                 (A) (A) (A) (A) (A) (A) (A) (A) (A) (A) (A) (A)
                 (A) (A) (A) (A) (A) (A) (A) (A) (A) (A) (A) (A)
                 (A) (A) (A) (A) (A) (A) (A) (A) (A) (A) (A) (A)
                 (A) (A) (A) (A) (A) (A) (A) (A) (A) (A) (A) (A)
                 (A) (A) (A) (A) (A) (A) (A) (A) (A) (A) (A) (A)
                 (A) (A) (A) (A) (A) (A) (A) (A) (A) (A) (A) (A)
                 (A) (A) (A) (A) (A) (A) (A) (A) (A) (A) (A) (A)
                 (A) (A) (A) (A) (A) (A) (A) (A) (A) (A) (A) (A)
                 (A) (A) (A) (A) (A) (A) (A) (A) (A) (A) (A) (A)
                 (A) (A) (A) (A) (A) (A) (A) (A) (A) (A) (A) (A)
                 (A) (A) (A) (A) (A) (A) (A) (A) (A) (A) (A) (A)
                 (A) (A) (A) (A) (A) (A) (A) (A) (A) (A) (A) (A)
                 (A) (A) (A) (A) (A) (A) (A) (A) (A) (A) (A) (A)
                 (A) (A) (A) (A) (A) (A) (A) (A) (A) (A) (A) (A)
                 (A) (A) (A) (A) (A) (A) (A) (A) (A) (A) (A) (A)
                 (A) (A) (A) (A) (A) (A) (A) (A) (A) (A) (A) (A)
                 (A) (A) (A) (A) (A) (A) (A) (A) (A) (A) (A) (A)
                 (A) (A) (A) (A) (A) (A) (A) (A) (A) (A) (A) (A)
                 (A) (A) (A)
    12 initial guesses have been made.
 Convergence on wavefunction:    0.001000000000000
 Davidson Disk Diagonalization:  ConvIn= 1.00D-03 SkipCon=T Conv= 1.00D-03.
 Max sub-space:  2000 roots to seek:    12 dimension of matrix:        41358
 Iteration     1 Dimension    12 NMult     0 NNew     12
 CISAX will form    12 AO SS matrices at one time.
 NMat=    12 NSing=    12 JSym2X= 0.
 FoFJK:  IHMeth= 1 ICntrl=       0 DoSepK=F KAlg= 0 I1Cent=           0 FoldK=F
 IRaf= 820000000 NMat=      24 IRICut=       1 DoRegI=T DoRafI=F ISym2E= 0 IDoP0=3 IntGTp=3.
 FoFCou: FMM=F IPFlag=           0 FMFlag=      100000 FMFlg1=           0
         NFxFlg=           0 DoJE=F BraDBF=F KetDBF=F FulRan=T
         wScrn=  0.000000 ICntrl=         0 IOpCl=  0 I1Cent=           0 NGrid=           0
         NMat0=   24 NMatS0=     12 NMatT0=    0 NMatD0=   24 NMtDS0=    0 NMtDT0=    0
 Symmetry not used in FoFCou.
 New state      1 was old state      3
 New state      2 was old state      4
 New state      3 was old state      2
 Excitation Energies [eV] at current iteration:
 Root      1 :     3.411531115323585
 Root      2 :     3.510102543829503
 Root      3 :     3.664215384302545
 Root      4 :     3.674279334725947
 Root      5 :     3.788671046245899
 Root      6 :     4.212080160199651
 Root      7 :     4.588859554928693
 Root      8 :     4.593161073126399
 Root      9 :     4.869528756478829
 Root     10 :     5.042624175908549
 Root     11 :     5.148747855989235
 Root     12 :     6.342307735528304
 Iteration     2 Dimension    18 NMult    12 NNew      6
 CISAX will form     6 AO SS matrices at one time.
 NMat=     6 NSing=     6 JSym2X= 0.
 New state      1 was old state      4
 Root      1 not converged, maximum delta is    0.457815330151482
 New state      2 was old state      3
 Root      2 not converged, maximum delta is    0.069281590416596
 New state      3 was old state      1
 Root      3 not converged, maximum delta is    0.316101637621232
 Excitation Energies [eV] at current iteration:
 Root      1 :     3.096968010229351   Change is   -0.577311324496596
 Root      2 :     3.285514828634950   Change is   -0.378700555667596
 Root      3 :     3.432435329955672   Change is    0.020904214632088
 Iteration     3 Dimension    24 NMult    18 NNew      6
 CISAX will form     6 AO SS matrices at one time.
 NMat=     6 NSing=     6 JSym2X= 0.
 Root      1 not converged, maximum delta is    0.042089009120897
 Root      2 not converged, maximum delta is    0.014212874403625
 Root      3 not converged, maximum delta is    0.041026412296828
 Excitation Energies [eV] at current iteration:
 Root      1 :     3.042808037302790   Change is   -0.054159972926561
 Root      2 :     3.270103718624172   Change is   -0.015411110010778
 Root      3 :     3.427016553033870   Change is   -0.005418776921803
 Iteration     4 Dimension    30 NMult    24 NNew      6
 CISAX will form     6 AO SS matrices at one time.
 NMat=     6 NSing=     6 JSym2X= 0.
 Root      1 not converged, maximum delta is    0.008204693019150
 Root      2 not converged, maximum delta is    0.004860199734267
 Root      3 not converged, maximum delta is    0.002770637059714
 Excitation Energies [eV] at current iteration:
 Root      1 :     3.034633227236136   Change is   -0.008174810066654
 Root      2 :     3.267845343789066   Change is   -0.002258374835105
 Root      3 :     3.426454837183976   Change is   -0.000561715849894
 Iteration     5 Dimension    36 NMult    30 NNew      6
 CISAX will form     6 AO SS matrices at one time.
 NMat=     6 NSing=     6 JSym2X= 0.
 Root      1 not converged, maximum delta is    0.003097520837231
 Root      2 not converged, maximum delta is    0.002443246603944
 Root      3 not converged, maximum delta is    0.001085311310993
 Excitation Energies [eV] at current iteration:
 Root      1 :     3.033738780877127   Change is   -0.000894446359010
 Root      2 :     3.267345539765835   Change is   -0.000499804023231
 Root      3 :     3.426389400828784   Change is   -0.000065436355192
 Iteration     6 Dimension    42 NMult    36 NNew      6
 CISAX will form     6 AO SS matrices at one time.
 NMat=     6 NSing=     6 JSym2X= 0.
 Root      1 has converged.
 Root      2 has converged.
 Root      3 has converged.
 Excitation Energies [eV] at current iteration:
 Root      1 :     3.033666202195238   Change is   -0.000072578681889
 Root      2 :     3.267278421849365   Change is   -0.000067117916470
 Root      3 :     3.426381874973277   Change is   -0.000007525855507
 Convergence achieved on expansion vectors.
 ***********************************************************************
 Excited states from <AA,BB:AA,BB> singles matrix:
 ***********************************************************************
 
 1PDM for each excited state written to RWF  633
 Ground to excited state transition densities written to RWF  633
 Ground to excited state transition electric dipole moments (Au):
       state          X           Y           Z        Dip. S.      Osc.
         1         0.0064     -2.8215     -0.0003      7.9608      0.5917
         2         0.0432     -0.0005      0.0066      0.0019      0.0002
         3        -0.0018      0.4712     -0.0002      0.2221      0.0186
 Ground to excited state transition velocity dipole moments (Au):
       state          X           Y           Z        Dip. S.      Osc.
         1        -0.0007      0.3054     -0.0001      0.0933      0.5579
         2        -0.0145      0.0001     -0.0020      0.0002      0.0012
         3         0.0002     -0.0539      0.0000      0.0029      0.0154
 Ground to excited state transition magnetic dipole moments (Au):
       state          X           Y           Z
         1         0.2344      0.0001     -0.2276
         2         0.0001      0.0129      0.0000
         3         0.0162      0.0001      0.1809
 Ground to excited state transition velocity quadrupole moments (Au):
       state          XX          YY          ZZ          XY          XZ          YZ
         1        -0.0055      0.0059      0.0003      1.2373      0.0006     -0.0440
         2        -0.0492      0.5258     -0.0024     -0.0011      0.0040     -0.0000
         3         0.0007     -0.0007     -0.0003     -0.2332     -0.0003      0.0009
 <0|del|b> * <b|rxdel|0> + <0|del|b> * <b|delr+rdel|0>
 Rotatory Strengths (R) in cgs (10**-40 erg-esu-cm/Gauss)
       state          XX          YY          ZZ    R(velocity)    E-M Angle
         1        -0.7450     -0.0566     -0.0284     -0.2767       90.08
         2         0.0079     -0.0088     -0.0006     -0.0005       90.00
         3        -0.0655      0.0603      0.0288      0.0079       90.00
 1/2[<0|r|b>*<b|rxdel|0> + (<0|rxdel|b>*<b|r|0>)*]
 Rotatory Strengths (R) in cgs (10**-40 erg-esu-cm/Gauss)
       state          XX          YY          ZZ     R(length)
         1        -1.0662      0.1321     -0.0463     -0.3268
         2        -0.0019      0.0042     -0.0001      0.0007
         3         0.0210     -0.0435      0.0259      0.0012
  1/2[<0|del|b>*<b|r|0> + (<0|r|b>*<b|del|0>)*] (Au)
       state          X           Y           Z        Dip. S.   Osc.(frdel)
         1        -0.0000     -0.8618      0.0000      0.8618      0.5745
         2        -0.0006     -0.0000     -0.0000      0.0006      0.0004
         3        -0.0000     -0.0254     -0.0000      0.0254      0.0169

 Excitation energies and oscillator strengths:
 
 Excited State   1:      Singlet-A      3.0337 eV  408.69 nm  f=0.5917  <S**2>=0.000
      85 -> 89        -0.11068
      86 -> 87         0.69201
 This state for optimization and/or second-order correction.
 Total Energy, E(TD-HF/TD-DFT) =  -1106.13585356    
 Copying the excited state density for this state as the 1-particle RhoCI density.
 
 Excited State   2:      Singlet-A      3.2673 eV  379.47 nm  f=0.0002  <S**2>=0.000
      85 -> 87         0.69451
 
 Excited State   3:      Singlet-A      3.4264 eV  361.85 nm  f=0.0186  <S**2>=0.000
      83 -> 87        -0.40628
      84 -> 87         0.57131
 SavETr:  write IOETrn=   770 NScale= 10 NData=  16 NLR=1 NState=    3 LETran=      64.
 Leave Link  914 at Thu Jun 10 22:34:00 2021, MaxMem=   134217728 cpu:            2321.4 elap:             145.1
 (Enter /APL/ISV/x86_64/gaussian/16/C.01/g16/l601.exe)
 Copying SCF densities to generalized density rwf, IOpCl= 0 IROHF=0.

 **********************************************************************

            Population analysis using the SCF Density.

 **********************************************************************

 Orbital symmetries:
       Occupied  (A) (A) (A) (A) (A) (A) (A) (A) (A) (A) (A) (A)
                 (A) (A) (A) (A) (A) (A) (A) (A) (A) (A) (A) (A)
                 (A) (A) (A) (A) (A) (A) (A) (A) (A) (A) (A) (A)
                 (A) (A) (A) (A) (A) (A) (A) (A) (A) (A) (A) (A)
                 (A) (A) (A) (A) (A) (A) (A) (A) (A) (A) (A) (A)
                 (A) (A) (A) (A) (A) (A) (A) (A) (A) (A) (A) (A)
                 (A) (A) (A) (A) (A) (A) (A) (A) (A) (A) (A) (A)
                 (A) (A)
       Virtual   (A) (A) (A) (A) (A) (A) (A) (A) (A) (A) (A) (A)
                 (A) (A) (A) (A) (A) (A) (A) (A) (A) (A) (A) (A)
                 (A) (A) (A) (A) (A) (A) (A) (A) (A) (A) (A) (A)
                 (A) (A) (A) (A) (A) (A) (A) (A) (A) (A) (A) (A)
                 (A) (A) (A) (A) (A) (A) (A) (A) (A) (A) (A) (A)
                 (A) (A) (A) (A) (A) (A) (A) (A) (A) (A) (A) (A)
                 (A) (A) (A) (A) (A) (A) (A) (A) (A) (A) (A) (A)
                 (A) (A) (A) (A) (A) (A) (A) (A) (A) (A) (A) (A)
                 (A) (A) (A) (A) (A) (A) (A) (A) (A) (A) (A) (A)
                 (A) (A) (A) (A) (A) (A) (A) (A) (A) (A) (A) (A)
                 (A) (A) (A) (A) (A) (A) (A) (A) (A) (A) (A) (A)
                 (A) (A) (A) (A) (A) (A) (A) (A) (A) (A) (A) (A)
                 (A) (A) (A) (A) (A) (A) (A) (A) (A) (A) (A) (A)
                 (A) (A) (A) (A) (A) (A) (A) (A) (A) (A) (A) (A)
                 (A) (A) (A) (A) (A) (A) (A) (A) (A) (A) (A) (A)
                 (A) (A) (A) (A) (A) (A) (A) (A) (A) (A) (A) (A)
                 (A) (A) (A) (A) (A) (A) (A) (A) (A) (A) (A) (A)
                 (A) (A) (A) (A) (A) (A) (A) (A) (A) (A) (A) (A)
                 (A) (A) (A) (A) (A) (A) (A) (A) (A) (A) (A) (A)
                 (A) (A) (A) (A) (A) (A) (A) (A) (A) (A) (A) (A)
                 (A) (A) (A) (A) (A) (A) (A) (A) (A) (A) (A) (A)
                 (A) (A) (A) (A) (A) (A) (A) (A) (A) (A) (A) (A)
                 (A) (A) (A) (A) (A) (A) (A) (A) (A) (A) (A) (A)
                 (A) (A) (A) (A) (A) (A) (A) (A) (A) (A) (A) (A)
                 (A) (A) (A) (A) (A) (A) (A) (A) (A) (A) (A) (A)
                 (A) (A) (A) (A) (A) (A) (A) (A) (A) (A) (A) (A)
                 (A) (A) (A) (A) (A) (A) (A) (A) (A) (A) (A) (A)
                 (A) (A) (A) (A) (A) (A) (A) (A) (A) (A) (A) (A)
                 (A) (A) (A)
 The electronic state is 1-A.
 Alpha  occ. eigenvalues --  -19.34392 -19.28650 -19.22553 -14.48331 -14.48330
 Alpha  occ. eigenvalues --  -10.41738 -10.39741 -10.39739 -10.38152 -10.38152
 Alpha  occ. eigenvalues --  -10.36508 -10.33181 -10.33181 -10.32869 -10.32766
 Alpha  occ. eigenvalues --  -10.32765 -10.31869 -10.31868 -10.31805 -10.31430
 Alpha  occ. eigenvalues --  -10.31429 -10.30867 -10.30536 -10.30087 -10.29927
 Alpha  occ. eigenvalues --   -1.24792  -1.20475  -1.11320  -1.06734  -1.06673
 Alpha  occ. eigenvalues --   -1.00405  -0.98790  -0.97073  -0.92773  -0.90842
 Alpha  occ. eigenvalues --   -0.87604  -0.86998  -0.86598  -0.86554  -0.79575
 Alpha  occ. eigenvalues --   -0.78906  -0.77102  -0.75472  -0.74226  -0.71777
 Alpha  occ. eigenvalues --   -0.70166  -0.69930  -0.68940  -0.66984  -0.65747
 Alpha  occ. eigenvalues --   -0.64177  -0.62749  -0.62531  -0.60960  -0.60232
 Alpha  occ. eigenvalues --   -0.60003  -0.59078  -0.57962  -0.56776  -0.56392
 Alpha  occ. eigenvalues --   -0.56039  -0.56025  -0.54917  -0.54745  -0.54693
 Alpha  occ. eigenvalues --   -0.53381  -0.52547  -0.51606  -0.51197  -0.50862
 Alpha  occ. eigenvalues --   -0.50394  -0.48874  -0.48012  -0.47342  -0.47186
 Alpha  occ. eigenvalues --   -0.45389  -0.45231  -0.44996  -0.41753  -0.39684
 Alpha  occ. eigenvalues --   -0.37995  -0.37433  -0.36912  -0.36631  -0.35619
 Alpha  occ. eigenvalues --   -0.32870
 Alpha virt. eigenvalues --   -0.21421  -0.15546  -0.14088  -0.12442  -0.12277
 Alpha virt. eigenvalues --   -0.12067  -0.06794  -0.06058  -0.05998  -0.04601
 Alpha virt. eigenvalues --   -0.03817  -0.03287  -0.03033  -0.02837  -0.02106
 Alpha virt. eigenvalues --   -0.01810   0.00726   0.01256   0.02271   0.02471
 Alpha virt. eigenvalues --    0.02577   0.03573   0.04124   0.04756   0.05057
 Alpha virt. eigenvalues --    0.06063   0.06402   0.08835   0.10643   0.12168
 Alpha virt. eigenvalues --    0.12846   0.12933   0.13803   0.14537   0.16770
 Alpha virt. eigenvalues --    0.16989   0.17781   0.18577   0.19207   0.19909
 Alpha virt. eigenvalues --    0.20590   0.20970   0.23527   0.23619   0.24605
 Alpha virt. eigenvalues --    0.26397   0.26969   0.27206   0.27598   0.29444
 Alpha virt. eigenvalues --    0.31274   0.31742   0.32440   0.32449   0.33398
 Alpha virt. eigenvalues --    0.33457   0.34973   0.35253   0.35886   0.35968
 Alpha virt. eigenvalues --    0.36099   0.36469   0.37177   0.37414   0.37778
 Alpha virt. eigenvalues --    0.37976   0.38444   0.38737   0.38899   0.39702
 Alpha virt. eigenvalues --    0.40056   0.40449   0.40888   0.41543   0.41625
 Alpha virt. eigenvalues --    0.42179   0.42429   0.43171   0.43664   0.43904
 Alpha virt. eigenvalues --    0.45383   0.45725   0.46985   0.47239   0.48521
 Alpha virt. eigenvalues --    0.48932   0.50320   0.50335   0.50721   0.52584
 Alpha virt. eigenvalues --    0.53027   0.53762   0.54236   0.54436   0.54884
 Alpha virt. eigenvalues --    0.56356   0.57199   0.57972   0.57982   0.58247
 Alpha virt. eigenvalues --    0.58326   0.59382   0.59832   0.60277   0.60466
 Alpha virt. eigenvalues --    0.60851   0.61347   0.61404   0.61621   0.62286
 Alpha virt. eigenvalues --    0.63273   0.64209   0.64489   0.66939   0.67147
 Alpha virt. eigenvalues --    0.70966   0.73231   0.74317   0.74691   0.74705
 Alpha virt. eigenvalues --    0.76035   0.76302   0.76987   0.79037   0.79089
 Alpha virt. eigenvalues --    0.79286   0.79853   0.80345   0.81028   0.81197
 Alpha virt. eigenvalues --    0.82191   0.83409   0.85074   0.85652   0.85749
 Alpha virt. eigenvalues --    0.86027   0.86543   0.87561   0.88001   0.88540
 Alpha virt. eigenvalues --    0.88948   0.88998   0.89380   0.89752   0.91273
 Alpha virt. eigenvalues --    0.91642   0.92610   0.93284   0.94277   0.94851
 Alpha virt. eigenvalues --    0.94943   0.94966   0.94986   0.97227   0.97620
 Alpha virt. eigenvalues --    0.98377   0.98691   1.00488   1.00896   1.00925
 Alpha virt. eigenvalues --    1.01776   1.03091   1.05796   1.06954   1.08985
 Alpha virt. eigenvalues --    1.09824   1.11483   1.11656   1.12579   1.14549
 Alpha virt. eigenvalues --    1.15132   1.16101   1.18469   1.19155   1.24381
 Alpha virt. eigenvalues --    1.24777   1.25288   1.25708   1.27662   1.30016
 Alpha virt. eigenvalues --    1.30265   1.31749   1.32278   1.34288   1.34729
 Alpha virt. eigenvalues --    1.34835   1.35701   1.35798   1.36191   1.37812
 Alpha virt. eigenvalues --    1.37898   1.38200   1.38936   1.39348   1.39662
 Alpha virt. eigenvalues --    1.40060   1.40471   1.43591   1.43612   1.44286
 Alpha virt. eigenvalues --    1.45244   1.45693   1.46552   1.46745   1.48059
 Alpha virt. eigenvalues --    1.48230   1.49066   1.49618   1.50519   1.50676
 Alpha virt. eigenvalues --    1.51414   1.52305   1.52347   1.54187   1.54571
 Alpha virt. eigenvalues --    1.54794   1.54797   1.55767   1.56937   1.58345
 Alpha virt. eigenvalues --    1.58485   1.58829   1.60009   1.60620   1.60962
 Alpha virt. eigenvalues --    1.61008   1.62009   1.62366   1.63177   1.63741
 Alpha virt. eigenvalues --    1.64216   1.64272   1.65190   1.65203   1.66393
 Alpha virt. eigenvalues --    1.67652   1.68116   1.68315   1.70437   1.70667
 Alpha virt. eigenvalues --    1.71769   1.72607   1.73256   1.73458   1.74023
 Alpha virt. eigenvalues --    1.75338   1.75575   1.75862   1.76355   1.76719
 Alpha virt. eigenvalues --    1.78134   1.78510   1.80402   1.80513   1.83017
 Alpha virt. eigenvalues --    1.83985   1.85415   1.86564   1.88692   1.89529
 Alpha virt. eigenvalues --    1.89855   1.91391   1.91786   1.94694   1.95098
 Alpha virt. eigenvalues --    1.96065   1.96501   1.97796   1.99816   2.00504
 Alpha virt. eigenvalues --    2.01633   2.02635   2.03418   2.03674   2.04777
 Alpha virt. eigenvalues --    2.06387   2.07189   2.09219   2.09780   2.11825
 Alpha virt. eigenvalues --    2.15049   2.15146   2.20405   2.21008   2.22203
 Alpha virt. eigenvalues --    2.23365   2.23507   2.23667   2.25472   2.25515
 Alpha virt. eigenvalues --    2.27270   2.27656   2.28738   2.31436   2.31688
 Alpha virt. eigenvalues --    2.32742   2.34777   2.35746   2.40977   2.41267
 Alpha virt. eigenvalues --    2.42621   2.43810   2.44805   2.48280   2.50495
 Alpha virt. eigenvalues --    2.51711   2.52369   2.54023   2.58176   2.58397
 Alpha virt. eigenvalues --    2.62216   2.63297   2.64984   2.65474   2.66546
 Alpha virt. eigenvalues --    2.69516   2.70002   2.70111   2.72903   2.74628
 Alpha virt. eigenvalues --    2.78754   2.81087   2.82747   2.83054   2.85097
 Alpha virt. eigenvalues --    3.00384   3.04148   3.04298   3.13145   3.14385
 Alpha virt. eigenvalues --    3.18118   3.19871   3.29202   3.31241   3.39210
 Alpha virt. eigenvalues --    3.46418   3.51095   3.53947   3.64702
          Condensed to atoms (all electrons):
               1          2          3          4          5          6
     1  C    4.785746   0.381777   0.034172  -0.070309   0.019849   0.373069
     2  C    0.381777   4.997534   0.509499  -0.045455  -0.050747  -0.077212
     3  C    0.034172   0.509499   4.964129   0.248950  -0.058393  -0.047912
     4  C   -0.070309  -0.045455   0.248950   5.233997   0.422962   0.018067
     5  C    0.019849  -0.050747  -0.058393   0.422962   4.854449   0.524116
     6  C    0.373069  -0.077212  -0.047912   0.018067   0.524116   4.855871
     7  C    0.000729   0.008827  -0.037571   0.284786  -0.090839   0.010774
     8  C   -0.000439   0.003845  -0.063086   0.080527   0.017684  -0.000586
     9  C    0.000521  -0.003824  -0.068730  -0.063067   0.001264   0.000156
    10  C    0.000023  -0.001566  -0.003823   0.003846   0.000064   0.000000
    11  H    0.000006   0.000029  -0.000463   0.000193  -0.000001   0.000000
    12  C   -0.000000   0.000023   0.000521  -0.000439  -0.000004   0.000000
    13  C    0.000000   0.000000   0.000156  -0.000586   0.000003   0.000000
    14  C   -0.000004   0.000064   0.001264   0.017675  -0.000330   0.000003
    15  H   -0.049686   0.354578  -0.005891   0.013835  -0.000340   0.007298
    16  H    0.009616  -0.000400   0.011362  -0.019872   0.384241  -0.046333
    17  H   -0.051626   0.008894  -0.000348   0.009144  -0.020965   0.380205
    18  H    0.000000  -0.000000  -0.000002   0.000012  -0.000000   0.000000
    19  H   -0.000000   0.000000  -0.000089   0.000575  -0.000001  -0.000000
    20  C   -0.000033  -0.000140   0.013286  -0.105330  -0.027263   0.000036
    21  C    0.000001  -0.000005  -0.000595  -0.001991   0.001100  -0.000043
    22  C   -0.000007  -0.000003  -0.000035  -0.008672  -0.001702   0.000015
    23  C    0.000000  -0.000000   0.000011  -0.000027  -0.000129  -0.000006
    24  C   -0.000000  -0.000000   0.000016   0.000012  -0.000271  -0.000008
    25  H    0.000001  -0.000006  -0.000141   0.000990   0.000243  -0.000035
    26  C    0.000000  -0.000000  -0.000000   0.000073  -0.000054  -0.000002
    27  H    0.000000   0.000000  -0.000000  -0.000002   0.000001   0.000000
    28  H    0.000000   0.000000  -0.000000  -0.000006  -0.000001   0.000000
    29  H   -0.000000  -0.000000   0.000000   0.000001  -0.000001  -0.000000
    30  O    0.002283  -0.043712   0.385297  -0.022828   0.004983  -0.000101
    31  N    0.546887  -0.069751   0.002431   0.000391   0.002544  -0.063536
    32  H    0.004442   0.011847  -0.000558   0.000036   0.000032  -0.025642
    33  H    0.006608  -0.027139   0.000528  -0.000126  -0.000379   0.011015
    34  N    0.000000  -0.000000  -0.000000   0.000000   0.000000  -0.000000
    35  H   -0.000000   0.000000   0.000002  -0.000000  -0.000000   0.000000
    36  H   -0.000000   0.000000  -0.000000   0.000000  -0.000000   0.000000
    37  C   -0.000000   0.000001  -0.000011  -0.000522  -0.000237  -0.000001
    38  O   -0.000000  -0.000000   0.000000   0.000002  -0.000013  -0.000000
    39  O    0.000000   0.000027   0.000097  -0.001053   0.000208   0.000021
    40  H   -0.000001  -0.000002   0.000001   0.000371   0.000001  -0.000005
               7          8          9         10         11         12
     1  C    0.000729  -0.000439   0.000521   0.000023   0.000006  -0.000000
     2  C    0.008827   0.003845  -0.003824  -0.001566   0.000029   0.000023
     3  C   -0.037571  -0.063086  -0.068730  -0.003823  -0.000463   0.000521
     4  C    0.284786   0.080527  -0.063067   0.003846   0.000193  -0.000439
     5  C   -0.090839   0.017684   0.001264   0.000064  -0.000001  -0.000004
     6  C    0.010774  -0.000586   0.000156   0.000000   0.000000   0.000000
     7  C    5.435136   0.284798  -0.037584   0.008826  -0.000551   0.000729
     8  C    0.284798   5.234102   0.248928  -0.045449   0.013835  -0.070305
     9  C   -0.037584   0.248928   4.964105   0.509482  -0.005896   0.034174
    10  C    0.008826  -0.045449   0.509482   4.997540   0.354581   0.381781
    11  H   -0.000551   0.013835  -0.005896   0.354581   0.688998  -0.049683
    12  C    0.000729  -0.070305   0.034174   0.381781  -0.049683   4.785721
    13  C    0.010774   0.018070  -0.047904  -0.077212   0.007298   0.373074
    14  C   -0.090835   0.422984  -0.058382  -0.050744  -0.000340   0.019851
    15  H   -0.000551   0.000193  -0.000463   0.000029   0.000117   0.000006
    16  H   -0.031938   0.000574  -0.000089   0.000000   0.000000  -0.000000
    17  H   -0.000322   0.000012  -0.000002  -0.000000  -0.000000   0.000000
    18  H   -0.000322   0.009142  -0.000348   0.008895  -0.000194  -0.051617
    19  H   -0.031934  -0.019869   0.011361  -0.000399   0.000045   0.009615
    20  C    0.287078  -0.105394   0.013282  -0.000140   0.000006  -0.000033
    21  C   -0.061159  -0.001993  -0.000594  -0.000005  -0.000000   0.000001
    22  C   -0.096690  -0.008670  -0.000035  -0.000003   0.000000  -0.000007
    23  C    0.013533  -0.000026   0.000011  -0.000000   0.000000   0.000000
    24  C    0.006197   0.000012   0.000016  -0.000000   0.000000  -0.000000
    25  H   -0.018187   0.000989  -0.000141  -0.000006  -0.000000   0.000001
    26  C   -0.001154   0.000073  -0.000000  -0.000000  -0.000000   0.000000
    27  H   -0.000002  -0.000002  -0.000000   0.000000  -0.000000   0.000000
    28  H   -0.000400  -0.000006  -0.000000   0.000000  -0.000000   0.000000
    29  H    0.000011   0.000001   0.000000  -0.000000   0.000000  -0.000000
    30  O   -0.039866  -0.022825   0.385321  -0.043714   0.002389   0.002283
    31  N   -0.000002   0.000000  -0.000000  -0.000000  -0.000000   0.000000
    32  H    0.000002   0.000000  -0.000000   0.000000   0.000000  -0.000000
    33  H   -0.000000  -0.000000   0.000002   0.000000   0.000000  -0.000000
    34  N   -0.000002   0.000390   0.002432  -0.069752  -0.008119   0.546891
    35  H   -0.000000  -0.000126   0.000528  -0.027140   0.002442   0.006609
    36  H    0.000002   0.000036  -0.000558   0.011847   0.000013   0.004440
    37  C   -0.030329  -0.000526  -0.000011   0.000001  -0.000000  -0.000000
    38  O   -0.000384   0.000002   0.000000  -0.000000  -0.000000  -0.000000
    39  O   -0.004093  -0.001047   0.000098   0.000027   0.000000   0.000000
[...]
    23  C   -0.000006  -0.000130   0.000000   0.000073  -0.000000  -0.000000
    24  C   -0.000008  -0.000271   0.000000   0.000084  -0.000000  -0.000000
    25  H   -0.000035   0.000243  -0.000000   0.000127  -0.000000  -0.000000
    26  C   -0.000002  -0.000054  -0.000000   0.000060  -0.000000  -0.000000
    27  H    0.000000   0.000001  -0.000000   0.000002  -0.000000  -0.000000
    28  H    0.000000  -0.000001  -0.000000   0.000007  -0.000000  -0.000000
    29  H   -0.000000  -0.000001   0.000000   0.000002  -0.000000  -0.000000
    30  O   -0.000101   0.004983   0.002390  -0.000058   0.000003   0.000003
    31  N   -0.000000   0.000000  -0.008118  -0.000116  -0.007708   0.000000
    32  H    0.000000  -0.000000   0.000013  -0.000014   0.003719   0.000000
    33  H    0.000000  -0.000000   0.002442   0.000011  -0.000161  -0.000000
    34  N   -0.063534   0.002545  -0.000000  -0.000000   0.000000  -0.007709
    35  H    0.011015  -0.000379   0.000000  -0.000000  -0.000000  -0.000161
    36  H   -0.025641   0.000032   0.000000  -0.000000   0.000000   0.003719
    37  C   -0.000001  -0.000237  -0.000000  -0.000096   0.000000   0.000000
    38  O   -0.000000  -0.000013  -0.000000  -0.000024   0.000000   0.000000
    39  O    0.000021   0.000206   0.000000   0.000247  -0.000001  -0.000001
    40  H   -0.000005   0.000001  -0.000000   0.000010   0.000000   0.000000
              19         20         21         22         23         24
     1  C   -0.000000  -0.000033   0.000001  -0.000007   0.000000  -0.000000
     2  C    0.000000  -0.000140  -0.000005  -0.000003  -0.000000  -0.000000
     3  C   -0.000089   0.013286  -0.000595  -0.000035   0.000011   0.000016
     4  C    0.000575  -0.105330  -0.001991  -0.008672  -0.000027   0.000012
     5  C   -0.000001  -0.027263   0.001100  -0.001702  -0.000129  -0.000271
     6  C   -0.000000   0.000036  -0.000043   0.000015  -0.000006  -0.000008
     7  C   -0.031934   0.287078  -0.061159  -0.096690   0.013533   0.006197
     8  C   -0.019869  -0.105394  -0.001993  -0.008670  -0.000026   0.000012
     9  C    0.011361   0.013282  -0.000594  -0.000035   0.000011   0.000016
    10  C   -0.000399  -0.000140  -0.000005  -0.000003  -0.000000  -0.000000
    11  H    0.000045   0.000006  -0.000000   0.000000   0.000000   0.000000
    12  C    0.009615  -0.000033   0.000001  -0.000007   0.000000  -0.000000
    13  C   -0.046339   0.000037  -0.000043   0.000015  -0.000006  -0.000008
    14  C    0.384250  -0.027253   0.001098  -0.001697  -0.000130  -0.000271
    15  H    0.000000   0.000006  -0.000000   0.000000   0.000000   0.000000
    16  H    0.000017   0.010674   0.000112   0.000344   0.000073   0.000084
    17  H   -0.000000  -0.000007   0.000002   0.000003  -0.000000  -0.000000
    18  H   -0.014880  -0.000007   0.000003   0.000003  -0.000000  -0.000000
    19  H    0.691723   0.010666   0.000114   0.000342   0.000074   0.000084
    20  C    0.010666   5.388293   0.307902   0.486002  -0.016326   0.019871
    21  C    0.000114   0.307902   5.397176   0.020856   0.410784  -0.091783
    22  C    0.000342   0.486002   0.020856   4.783965  -0.084482   0.474153
    23  C    0.000074  -0.016326   0.410784  -0.084482   4.867339   0.028199
    24  C    0.000084   0.019871  -0.091783   0.474153   0.028199   4.746397
    25  H    0.000127  -0.048458   0.014303   0.396091  -0.001000  -0.046035
    26  C    0.000060  -0.086119   0.020539   0.015244   0.422898   0.451188
    27  H    0.000002   0.014342  -0.037387  -0.000981   0.395805   0.009891
    28  H    0.000007   0.009081   0.000455  -0.040723   0.008948   0.393582
    29  H    0.000002   0.000381   0.009509   0.009062  -0.042883  -0.049127
    30  O   -0.000058  -0.000386   0.000008  -0.000007  -0.000000  -0.000000
    31  N   -0.000000  -0.000000   0.000000   0.000000   0.000000   0.000000
    32  H   -0.000000  -0.000000   0.000000   0.000000   0.000000  -0.000000
    33  H   -0.000000   0.000000  -0.000000  -0.000000   0.000000   0.000000
    34  N   -0.000116  -0.000000   0.000000   0.000000   0.000000   0.000000
    35  H    0.000011   0.000000  -0.000000  -0.000000   0.000000   0.000000
    36  H   -0.000014  -0.000000   0.000000   0.000000   0.000000  -0.000000
    37  C   -0.000097  -0.062170   0.219345   0.010338  -0.097071  -0.001518
    38  O   -0.000024   0.004277  -0.104029  -0.000011   0.010696  -0.000026
    39  O    0.000246   0.001944  -0.069223   0.000373   0.005001   0.000005
    40  H    0.000010  -0.000308   0.012798   0.000042  -0.000900   0.000002
              25         26         27         28         29         30
     1  C    0.000001   0.000000   0.000000   0.000000  -0.000000   0.002283
     2  C   -0.000006  -0.000000   0.000000   0.000000  -0.000000  -0.043712
     3  C   -0.000141  -0.000000  -0.000000  -0.000000   0.000000   0.385297
     4  C    0.000990   0.000073  -0.000002  -0.000006   0.000001  -0.022828
     5  C    0.000243  -0.000054   0.000001  -0.000001  -0.000001   0.004983
     6  C   -0.000035  -0.000002   0.000000   0.000000  -0.000000  -0.000101
     7  C   -0.018187  -0.001154  -0.000002  -0.000400   0.000011  -0.039866
     8  C    0.000989   0.000073  -0.000002  -0.000006   0.000001  -0.022825
     9  C   -0.000141  -0.000000  -0.000000  -0.000000   0.000000   0.385321
    10  C   -0.000006  -0.000000   0.000000   0.000000  -0.000000  -0.043714
    11  H   -0.000000  -0.000000  -0.000000  -0.000000   0.000000   0.002389
    12  C    0.000001   0.000000   0.000000   0.000000  -0.000000   0.002283
    13  C   -0.000035  -0.000002   0.000000   0.000000  -0.000000  -0.000101
    14  C    0.000243  -0.000054   0.000001  -0.000001  -0.000001   0.004983
    15  H   -0.000000  -0.000000  -0.000000  -0.000000   0.000000   0.002390
    16  H    0.000127   0.000060   0.000002   0.000007   0.000002  -0.000058
    17  H   -0.000000  -0.000000  -0.000000  -0.000000  -0.000000   0.000003
    18  H   -0.000000  -0.000000  -0.000000  -0.000000  -0.000000   0.000003
    19  H    0.000127   0.000060   0.000002   0.000007   0.000002  -0.000058
    20  C   -0.048458  -0.086119   0.014342   0.009081   0.000381  -0.000386
    21  C    0.014303   0.020539  -0.037387   0.000455   0.009509   0.000008
    22  C    0.396091   0.015244  -0.000981  -0.040723   0.009062  -0.000007
    23  C   -0.001000   0.422898   0.395805   0.008948  -0.042883  -0.000000
    24  C   -0.046035   0.451188   0.009891   0.393582  -0.049127  -0.000000
    25  H    0.730398   0.010602   0.000038  -0.014513  -0.000241  -0.000003
    26  C    0.010602   4.793381  -0.051574  -0.047215   0.398128   0.000000
    27  H    0.000038  -0.051574   0.685891  -0.000200  -0.013180   0.000000
    28  H   -0.014513  -0.047215  -0.000200   0.700703  -0.013473   0.000000
    29  H   -0.000241   0.398128  -0.013180  -0.013473   0.697298  -0.000000
    30  O   -0.000003   0.000000   0.000000   0.000000  -0.000000   7.587726
    31  N    0.000000  -0.000000  -0.000000  -0.000000   0.000000  -0.000007
    32  H   -0.000000  -0.000000   0.000000   0.000000  -0.000000   0.000001
    33  H    0.000000   0.000000  -0.000000  -0.000000   0.000000  -0.000006
    34  N    0.000000  -0.000000  -0.000000  -0.000000   0.000000  -0.000007
    35  H    0.000000   0.000000  -0.000000  -0.000000   0.000000  -0.000006
    36  H   -0.000000  -0.000000   0.000000  -0.000000  -0.000000   0.000001
    37  C   -0.000030   0.014356  -0.027885   0.000034  -0.000287  -0.000001
    38  O    0.000001   0.001375   0.022679  -0.000000  -0.000000  -0.000000
    39  O    0.000012  -0.000055   0.000797  -0.000000   0.000000  -0.000001
    40  H   -0.000002  -0.000000  -0.000184   0.000000  -0.000001  -0.000004
              31         32         33         34         35         36
     1  C    0.546887   0.004442   0.006608   0.000000  -0.000000  -0.000000
     2  C   -0.069751   0.011847  -0.027139  -0.000000   0.000000   0.000000
     3  C    0.002431  -0.000558   0.000528  -0.000000   0.000002  -0.000000
     4  C    0.000391   0.000036  -0.000126   0.000000  -0.000000   0.000000
     5  C    0.002544   0.000032  -0.000379   0.000000  -0.000000  -0.000000
     6  C   -0.063536  -0.025642   0.011015  -0.000000   0.000000   0.000000
     7  C   -0.000002   0.000002  -0.000000  -0.000002  -0.000000   0.000002
     8  C    0.000000   0.000000  -0.000000   0.000390  -0.000126   0.000036
     9  C   -0.000000  -0.000000   0.000002   0.002432   0.000528  -0.000558
    10  C   -0.000000   0.000000   0.000000  -0.069752  -0.027140   0.011847
    11  H   -0.000000   0.000000   0.000000  -0.008119   0.002442   0.000013
    12  C    0.000000  -0.000000  -0.000000   0.546891   0.006609   0.004440
    13  C   -0.000000   0.000000   0.000000  -0.063534   0.011015  -0.025641
    14  C    0.000000  -0.000000  -0.000000   0.002545  -0.000379   0.000032
    15  H   -0.008118   0.000013   0.002442  -0.000000   0.000000   0.000000
    16  H   -0.000116  -0.000014   0.000011  -0.000000  -0.000000  -0.000000
    17  H   -0.007708   0.003719  -0.000161   0.000000  -0.000000   0.000000
    18  H    0.000000   0.000000  -0.000000  -0.007709  -0.000161   0.003719
    19  H   -0.000000  -0.000000  -0.000000  -0.000116   0.000011  -0.000014
    20  C   -0.000000  -0.000000   0.000000  -0.000000   0.000000  -0.000000
    21  C    0.000000   0.000000  -0.000000   0.000000  -0.000000   0.000000
    22  C    0.000000   0.000000  -0.000000   0.000000  -0.000000   0.000000
    23  C    0.000000   0.000000   0.000000   0.000000   0.000000   0.000000
    24  C    0.000000  -0.000000   0.000000   0.000000   0.000000  -0.000000
    25  H    0.000000  -0.000000   0.000000   0.000000   0.000000  -0.000000
    26  C   -0.000000  -0.000000   0.000000  -0.000000   0.000000  -0.000000
    27  H   -0.000000   0.000000  -0.000000  -0.000000  -0.000000   0.000000
    28  H   -0.000000   0.000000  -0.000000  -0.000000  -0.000000  -0.000000
    29  H    0.000000  -0.000000   0.000000   0.000000   0.000000  -0.000000
    30  O   -0.000007   0.000001  -0.000006  -0.000007  -0.000006   0.000001
    31  N    5.875131   0.369759   0.369733  -0.000000  -0.000000   0.000000
    32  H    0.369759   0.558470  -0.035444   0.000000   0.000000  -0.000000
    33  H    0.369733  -0.035444   0.560339  -0.000000  -0.000000   0.000000
    34  N   -0.000000   0.000000  -0.000000   5.875123   0.369732   0.369760
    35  H   -0.000000   0.000000  -0.000000   0.369732   0.560336  -0.035444
    36  H    0.000000  -0.000000   0.000000   0.369760  -0.035444   0.558466
    37  C   -0.000000  -0.000000   0.000000  -0.000000   0.000000  -0.000000
    38  O   -0.000000  -0.000000   0.000000  -0.000000   0.000000  -0.000000
    39  O   -0.000000   0.000000  -0.000000  -0.000000  -0.000000   0.000000
    40  H    0.000000  -0.000000   0.000000   0.000000   0.000000  -0.000000
              37         38         39         40
     1  C   -0.000000  -0.000000   0.000000  -0.000001
     2  C    0.000001  -0.000000   0.000027  -0.000002
     3  C   -0.000011   0.000000   0.000097   0.000001
     4  C   -0.000522   0.000002  -0.001053   0.000371
     5  C   -0.000237  -0.000013   0.000208   0.000001
     6  C   -0.000001  -0.000000   0.000021  -0.000005
     7  C   -0.030329  -0.000384  -0.004093  -0.000926
     8  C   -0.000526   0.000002  -0.001047   0.000370
     9  C   -0.000011   0.000000   0.000098   0.000001
    10  C    0.000001  -0.000000   0.000027  -0.000002
    11  H   -0.000000  -0.000000   0.000000  -0.000000
    12  C   -0.000000  -0.000000   0.000000  -0.000001
    13  C   -0.000001  -0.000000   0.000021  -0.000005
    14  C   -0.000237  -0.000013   0.000206   0.000001
    15  H   -0.000000  -0.000000   0.000000  -0.000000
    16  H   -0.000096  -0.000024   0.000247   0.000010
    17  H    0.000000   0.000000  -0.000001   0.000000
    18  H    0.000000   0.000000  -0.000001   0.000000
    19  H   -0.000097  -0.000024   0.000246   0.000010
    20  C   -0.062170   0.004277   0.001944  -0.000308
    21  C    0.219345  -0.104029  -0.069223   0.012798
    22  C    0.010338  -0.000011   0.000373   0.000042
    23  C   -0.097071   0.010696   0.005001  -0.000900
    24  C   -0.001518  -0.000026   0.000005   0.000002
    25  H   -0.000030   0.000001   0.000012  -0.000002
    26  C    0.014356   0.001375  -0.000055  -0.000000
    27  H   -0.027885   0.022679   0.000797  -0.000184
    28  H    0.000034  -0.000000  -0.000000   0.000000
    29  H   -0.000287  -0.000000   0.000000  -0.000001
    30  O   -0.000001  -0.000000  -0.000001  -0.000004
    31  N   -0.000000  -0.000000  -0.000000   0.000000
    32  H   -0.000000  -0.000000   0.000000  -0.000000
    33  H    0.000000   0.000000  -0.000000   0.000000
    34  N   -0.000000  -0.000000  -0.000000   0.000000
    35  H    0.000000   0.000000  -0.000000   0.000000
    36  H   -0.000000  -0.000000   0.000000  -0.000000
    37  C    4.650093   0.772003   0.423406  -0.025040
    38  O    0.772003   7.551051  -0.065195   0.010877
    39  O    0.423406  -0.065195   7.554908   0.330121
    40  H   -0.025040   0.010877   0.330121   0.510888
 Mulliken charges:
               1
     1  C    0.006374
     2  C    0.043014
     3  C    0.115925
     4  C    0.003839
     5  C    0.017925
     6  C    0.080774
     7  C    0.223438
     8  C    0.003780
     9  C    0.115945
    10  C    0.043014
    11  H   -0.004705
    12  C    0.006369
    13  C    0.080783
    14  C    0.017935
    15  H   -0.004707
    16  H    0.004482
    17  H   -0.001735
    18  H   -0.001731
    19  H    0.004488
    20  C   -0.087795
    21  C   -0.047253
    22  C    0.046877
    23  C    0.079616
    24  C    0.059339
    25  H   -0.025332
    26  C    0.058251
    27  H    0.001950
    28  H    0.003723
    29  H    0.004798
    30  O   -0.203982
    31  N   -0.017639
    32  H    0.113336
    33  H    0.112578
    34  N   -0.017635
    35  H    0.112580
    36  H    0.113339
    37  C    0.156493
    38  O   -0.203242
    39  O   -0.177098
    40  H    0.161888
 Sum of Mulliken charges =   1.00000
 Mulliken charges with hydrogens summed into heavy atoms:
               1
     1  C    0.006374
     2  C    0.038307
     3  C    0.115925
     4  C    0.003839
     5  C    0.022407
     6  C    0.079039
     7  C    0.223438
     8  C    0.003780
     9  C    0.115945
    10  C    0.038309
    12  C    0.006369
    13  C    0.079053
    14  C    0.022424
    20  C   -0.087795
    21  C   -0.047253
    22  C    0.021545
    23  C    0.081566
    24  C    0.063062
    26  C    0.063049
    30  O   -0.203982
    31  N    0.208274
    34  N    0.208285
    37  C    0.156493
    38  O   -0.203242
    39  O   -0.015211
 Electronic spatial extent (au):  <R**2>=           8047.3249
 Charge=              1.0000 electrons
 Dipole moment (field-independent basis, Debye):
    X=              7.0749    Y=              0.0158    Z=             -1.8677  Tot=              7.3173
 Quadrupole moment (field-independent basis, Debye-Ang):
   XX=            -92.6865   YY=            -50.1094   ZZ=           -136.2056
   XY=             -0.0893   XZ=             13.8528   YZ=             -0.0157
 Traceless Quadrupole moment (field-independent basis, Debye-Ang):
   XX=              0.3140   YY=             42.8911   ZZ=            -43.2051
   XY=             -0.0893   XZ=             13.8528   YZ=             -0.0157
 Octapole moment (field-independent basis, Debye-Ang**2):
  XXX=             90.7683  YYY=              1.6350  ZZZ=             18.1709  XYY=            233.3586
  XXY=             -0.8588  XXZ=            -36.7999  XZZ=             -5.1815  YZZ=             -0.0287
  YYZ=              9.7899  XYZ=             -0.2388
 Hexadecapole moment (field-independent basis, Debye-Ang**3):
 XXXX=          -3829.2581 YYYY=          -2003.4999 ZZZZ=          -1000.4006 XXXY=             -2.9438
 XXXZ=            213.0451 YYYX=             -0.8526 YYYZ=             -1.3383 ZZZX=             79.0797
 ZZZY=              0.1803 XXYY=           -818.6400 XXZZ=          -1030.9667 YYZZ=          -1038.3267
 XXYZ=              0.0123 YYXZ=              6.0979 ZZXY=              0.0905
 N-N= 2.088329534307D+03 E-N=-6.731486813229D+03  KE= 1.099053845614D+03
 Leave Link  601 at Thu Jun 10 22:34:00 2021, MaxMem=   134217728 cpu:               1.4 elap:               0.1
 (Enter /APL/ISV/x86_64/gaussian/16/C.01/g16/l9999.exe)
 Electronic transition elements 
                 1             2             3 
      1  -0.110614D+04 -0.110613D+04 -0.110612D+04
      2   0.281099D+01  0.111986D-02 -0.469484D+00
      3   0.285764D-01 -0.436681D-01 -0.397485D-02
      4  -0.241396D+00  0.138777D-02  0.404226D-01
      5  -0.304296D+00 -0.288558D-03  0.537170D-01
      6  -0.304531D-02  0.145992D-01  0.448358D-03
      7   0.262380D-01 -0.640464D-03 -0.464413D-02
      8   0.252399D-01 -0.128813D-01 -0.145687D-01
      9  -0.188265D+00 -0.223441D-03 -0.493375D-01
     10   0.265882D+00  0.111243D-02 -0.174179D+00
     11  -0.704638D-01  0.521763D+00  0.124882D-01
     12   0.247448D-01 -0.460449D-01 -0.506887D-02
     13   0.463596D-01 -0.150569D-02 -0.772419D-02
     14   0.120298D+01  0.701342D-02 -0.228123D+00
     15  -0.265989D+00 -0.455109D-01  0.429108D-01
     16  -0.105733D+00  0.116942D-01  0.198184D-01
 Unable to Open any file for archive entry.
 1\1\GINC-LEMON\SP\RB3LYP TD-FC\CC-pVDZ\C20H15N2O3(1+)\YAGI\10-Jun-2021
 \0\\#p B3LYP/cc-pVDZ TD=(singlets,root=1) geom=checkpoint guess=read\\
 rhodamine TDDFT\\1,1\C,0,3.5265058648,-1.81369124,-0.2283592853\C,0,2.
 2787024727,-2.4554250473,-0.0811493596\C,0,1.1243306181,-1.6935253328,
 -0.0347101104\C,0,1.1346480281,-0.2687585134,-0.1274045639\C,0,2.41222
 31696,0.3526006778,-0.277045701\C,0,3.5655454755,-0.3839063348,-0.3263
 878671\C,0,-0.0886476384,0.433889875,-0.0780242529\C,0,-1.2880015197,-
 0.2932096744,0.0811196846\C,0,-1.2334829102,-1.7173295884,0.1681362436
 \C,0,-2.3633702558,-2.5022413615,0.3181213748\H,0,-2.2533694426,-3.585
 4648061,0.3801093999\C,0,-3.6305681211,-1.8858469672,0.3872875785\C,0,
 -3.7143769015,-0.4572705044,0.3001991531\C,0,-2.5845444918,0.302242738
 5,0.1531988965\H,0,2.2025586339,-3.540514908,-0.0030568012\H,0,2.45925
 48345,1.438835405,-0.353422882\H,0,4.5301782979,0.1141685695,-0.441916
 864\H,0,-4.694347878,0.0211599384,0.3521780328\H,0,-2.665559217,1.3872
 071489,0.0880720413\C,0,-0.1052330887,1.9315034505,-0.09644867\C,0,-0.
 2142397612,2.7180180203,-1.2672703826\C,0,-0.0043089525,2.5751627047,1
 .1481484725\C,0,-0.2188512451,4.1186094736,-1.1562718077\C,0,-0.010454
 7308,3.9690197311,1.2406045223\H,0,0.0800435608,1.9728372968,2.0550314
 175\C,0,-0.118189233,4.7448043794,0.0837757247\H,0,-0.304156939,4.6972
 841863,-2.0766032034\H,0,0.0693191472,4.4445879934,2.2201826259\H,0,-0
 .1237246677,5.8342784981,0.1477743008\O,0,-0.0443980852,-2.3727133383,
 0.1068646591\N,0,4.6743915913,-2.5232666912,-0.2768958893\H,0,5.568212
 4958,-2.0626779589,-0.3844635681\H,0,4.6724307321,-3.5324814901,-0.210
 6456384\N,0,-4.7555188322,-2.6184034281,0.5333574885\H,0,-4.7218463656
 ,-3.627093486,0.5990879243\H,0,-5.6633654875,-2.1757974804,0.583832345
 2\C,0,-0.329064893,2.1824423017,-2.6614342184\O,0,-0.4213042819,2.8776
 40349,-3.6467740705\O,0,-0.3207922725,0.8287023687,-2.7285908335\H,0,-
 0.4000750004,0.6092229446,-3.6759132465\\Version=ES64L-G16RevC.01\Stat
 e=1-A\HF=-1106.2473387\RMSD=6.051e-09\PG=C01 [X(C20H15N2O3)]\\@
 The archive entry for this job was punched.


 KNOWLEDGE IS OF TWO KINDS:  WE KNOW A SUBJECT OURSELVES OR WE KNOW 
 WHERE WE CAN FIND INFORMATION UPON IT.

                                    -- SAMUEL JOHNSON
 Job cpu time:       0 days  0 hours 40 minutes 24.5 seconds.
 Elapsed time:       0 days  0 hours  2 minutes 31.9 seconds.
 File lengths (MBytes):  RWF=    919 Int=      0 D2E=      0 Chk=     35 Scr=      1
 Normal termination of Gaussian 16 at Thu Jun 10 22:34:00 2021.

real	2m31.961s
user	40m22.279s
sys	0m2.213s
