 Entering Gaussian System, Link 0=g16
 Initial command:
 /APL/ISV/x86_64/gaussian/16/C.01/g16/l1.exe "/scr/yagi/rhodamine.62284/Gau-65399.inp" -scrdir="/scr/yagi/rhodamine.62284/"
 Entering Link 1 = /APL/ISV/x86_64/gaussian/16/C.01/g16/l1.exe PID=     65400.
  
 Copyright (c) 1988-2019, Gaussian, Inc.  All Rights Reserved.
  
 This is part of the Gaussian(R) 16 program.  It is based on
 the Gaussian(R) 09 system (copyright 2009, Gaussian, Inc.),
 the Gaussian(R) 03 system (copyright 2003, Gaussian, Inc.),
 the Gaussian(R) 98 system (copyright 1998, Gaussian, Inc.),
 the Gaussian(R) 94 system (copyright 1995, Gaussian, Inc.),
 the Gaussian 92(TM) system (copyright 1992, Gaussian, Inc.),
 the Gaussian 90(TM) system (copyright 1990, Gaussian, Inc.),
 the Gaussian 88(TM) system (copyright 1988, Gaussian, Inc.),
 the Gaussian 86(TM) system (copyright 1986, Carnegie Mellon
 University), and the Gaussian 82(TM) system (copyright 1983,
 Carnegie Mellon University). Gaussian is a federally registered
 trademark of Gaussian, Inc.
  
 This software contains proprietary and confidential information,
 including trade secrets, belonging to Gaussian, Inc.
  
 This software is provided under written license and may be
 used, copied, transmitted, or stored only in accord with that
 written license.
  
 The following legend is applicable only to US Government
 contracts under FAR:
  
                    RESTRICTED RIGHTS LEGEND
  
 Use, reproduction and disclosure by the US Government is
 subject to restrictions as set forth in subparagraphs (a)
 and (c) of the Commercial Computer Software - Restricted
 Rights clause in FAR 52.227-19.
  
 Gaussian, Inc.
 340 Quinnipiac St., Bldg. 40, Wallingford CT 06492
  
  
 ---------------------------------------------------------------
 Warning -- This program may not be used in any manner that
 competes with the business of Gaussian, Inc. or will provide
 assistance to any competitor of Gaussian, Inc.  The licensee
 of this program is prohibited from giving any competitor of
 Gaussian, Inc. access to this program.  By using this program,
 the user acknowledges that Gaussian, Inc. is engaged in the
 business of creating and licensing software in the field of
 computational chemistry and represents and warrants to the
 licensee that it is not a competitor of Gaussian, Inc. and that
 it will not use this program in any manner prohibited above.
 ---------------------------------------------------------------
  

 Cite this work as:
 Gaussian 16, Revision C.01,
 M. J. Frisch, G. W. Trucks, H. B. Schlegel, G. E. Scuseria, 
 M. A. Robb, J. R. Cheeseman, G. Scalmani, V. Barone, 
 G. A. Petersson, H. Nakatsuji, X. Li, M. Caricato, A. V. Marenich, 
 J. Bloino, B. G. Janesko, R. Gomperts, B. Mennucci, H. P. Hratchian, 
 J. V. Ortiz, A. F. Izmaylov, J. L. Sonnenberg, D. Williams-Young, 
 F. Ding, F. Lipparini, F. Egidi, J. Goings, B. Peng, A. Petrone, 
 T. Henderson, D. Ranasinghe, V. G. Zakrzewski, J. Gao, N. Rega, 
 G. Zheng, W. Liang, M. Hada, M. Ehara, K. Toyota, R. Fukuda, 
 J. Hasegawa, M. Ishida, T. Nakajima, Y. Honda, O. Kitao, H. Nakai, 
 T. Vreven, K. Throssell, J. A. Montgomery, Jr., J. E. Peralta, 
 F. Ogliaro, M. J. Bearpark, J. J. Heyd, E. N. Brothers, K. N. Kudin, 
 V. N. Staroverov, T. A. Keith, R. Kobayashi, J. Normand, 
 K. Raghavachari, A. P. Rendell, J. C. Burant, S. S. Iyengar, 
 J. Tomasi, M. Cossi, J. M. Millam, M. Klene, C. Adamo, R. Cammi, 
 J. W. Ochterski, R. L. Martin, K. Morokuma, O. Farkas, 
 J. B. Foresman, and D. J. Fox, Gaussian, Inc., Wallingford CT, 2019.
 
 ******************************************
 Gaussian 16:  ES64L-G16RevC.01  3-Jul-2019
                10-Jun-2021 
 ******************************************
 %nprocshared=16
 Will use up to   16 processors via shared memory.
 %chk=rhodamine2.chk
 %mem=1GB
 --------------------------------------
 #p opt b3lyp/cc-pvdz geom=connectivity
 --------------------------------------
 1/18=20,19=15,26=3,38=1,57=2/1,3;
 2/9=110,12=2,17=6,18=5,40=1/2;
 3/5=16,11=2,25=1,30=1,71=1,74=-5/1,2,3;
 4//1;
 5/5=2,38=5/2;
 6/7=2,8=2,9=2,10=2,28=1/1;
 7//1,2,3,16;
 1/18=20,19=15,26=3/3(2);
 2/9=110/2;
 99//99;
 2/9=110/2;
 3/5=16,11=2,25=1,30=1,71=1,74=-5/1,2,3;
 4/5=5,16=3,69=1/1;
 5/5=2,38=5/2;
 7//1,2,3,16;
 1/18=20,19=15,26=3/3(-5);
 2/9=110/2;
 6/7=2,8=2,9=2,10=2,19=2,28=1/1;
 99/9=1/99;
 Leave Link    1 at Thu Jun 10 22:34:00 2021, MaxMem=   134217728 cpu:               0.3 elap:               0.0
 (Enter /APL/ISV/x86_64/gaussian/16/C.01/g16/l101.exe)
 -------------
 Rhodamine (2)
 -------------
 Symbolic Z-matrix:
 Charge =  1 Multiplicity = 1
 C                    -3.65642  -0.94983   0.09669 
 C                    -2.40767  -1.62729   0.15614 
 C                    -1.22511  -0.92723   0.01038 
 C                    -1.17654   0.47982  -0.21709 
 C                    -2.43579   1.14335  -0.28748 
 C                    -3.62137   0.4709   -0.14321 
 C                     0.07456   1.11779  -0.35299 
 C                     1.24676   0.3381   -0.27635 
 C                     1.14103  -1.0663   -0.04575 
 C                     2.24012  -1.89952   0.04594 
 H                     2.05374  -2.9589    0.2007 
 C                     3.55379  -1.37303  -0.08449 
 C                     3.67501   0.04526  -0.31534 
 C                     2.57182   0.85205  -0.40461 
 H                    -2.33436  -2.70034   0.30854 
 H                    -2.44998   2.2193   -0.46331 
 H                    -4.5472    1.03636  -0.21221 
 H                     4.65912   0.49873  -0.40477 
 H                     2.70284   1.92143  -0.57126 
 C                     0.15244   2.58102  -0.66421 
 C                     0.2467    3.60728   0.30595 
 C                     0.13715   2.93388  -2.02393 
 C                     0.32224   4.94632  -0.11351 
 C                     0.20929   4.27003  -2.4237 
 H                     0.0647    2.1462   -2.77673 
 C                     0.30373   5.28165  -1.46476 
 H                     0.39717   5.71339   0.65824 
 H                     0.19208   4.51623  -3.4873 
 H                     0.36375   6.32806  -1.76909 
 O                    -0.07754  -1.6586    0.08878 
 N                    -4.8396   -1.59926   0.25855 
 N                     4.65207  -2.16652   0.00732 
 C                     0.28018   3.39844   1.78931 
 O                     0.36569   4.29806   2.59506 
 O                     0.20739   2.09786   2.16457 
 H                     0.23674   2.09966   3.13948 
 C                     6.01389  -1.65757  -0.21999 
 H                     6.59973  -2.49523  -0.62542 
 H                     5.98737  -0.89948  -1.01445 
 C                     6.68581  -1.10703   1.04104 
 H                     6.14353  -0.2389    1.44479 
 H                     6.74238  -1.86945   1.83248 
 H                     7.71346  -0.78908   0.80747 
 C                     4.55086  -3.59473   0.3407 
 H                     3.74014  -3.73468   1.06933 
 H                     5.47875  -3.86431   0.86574 
 C                     4.35193  -4.49956  -0.87881 
 H                     4.33279  -5.55354  -0.5617 
 H                     3.40652  -4.28157  -1.39781 
 H                     5.17153  -4.38245  -1.60372 
 C                    -4.86963  -3.05497   0.46365 
 H                    -5.78198  -3.29848   1.01619 
 H                    -4.03923  -3.3307    1.12978 
 C                    -6.10272  -0.83474   0.11891 
 H                    -6.06604   0.01798   0.81596 
 H                    -6.14086  -0.41255  -0.89994 
 C                    -7.38664  -1.61181   0.382 
 H                    -7.4486   -1.98334   1.41523 
 H                    -8.2314   -0.92285   0.23265 
 H                    -7.52638  -2.45532  -0.30913 
 C                    -4.81723  -3.86563  -0.83405 
 H                    -3.89993  -3.66419  -1.40743 
 H                    -4.8443   -4.94134  -0.60059 
 H                    -5.67672  -3.63864  -1.48265 
 
 ITRead=  0  0  0  0  0  0  0  0  0  0  0  0  0  0  0  0  0  0  0  0
 ITRead=  0  0  0  0  0  0  0  0  0  0  0  0  0  0  0  0  0  0  0  0
 ITRead=  0  0  0  0  0  0  0  0  0  0  0  0  0  0  0  0  0  0  0  0
 ITRead=  0  0  0  0
 MicOpt= -1 -1 -1 -1 -1 -1 -1 -1 -1 -1 -1 -1 -1 -1 -1 -1 -1 -1 -1 -1
 MicOpt= -1 -1 -1 -1 -1 -1 -1 -1 -1 -1 -1 -1 -1 -1 -1 -1 -1 -1 -1 -1
 MicOpt= -1 -1 -1 -1 -1 -1 -1 -1 -1 -1 -1 -1 -1 -1 -1 -1 -1 -1 -1 -1
 MicOpt= -1 -1 -1 -1
 NAtoms=     64 NQM=       64 NQMF=       0 NMMI=      0 NMMIF=      0
                NMic=       0 NMicF=      0.
                    Isotopes and Nuclear Properties:
 (Nuclear quadrupole moments (NQMom) in fm**2, nuclear magnetic moments (NMagM)
  in nuclear magnetons)

  Atom         1           2           3           4           5           6           7           8           9          10
 IAtWgt=          12          12          12          12          12          12          12          12          12          12
 AtmWgt=  12.0000000  12.0000000  12.0000000  12.0000000  12.0000000  12.0000000  12.0000000  12.0000000  12.0000000  12.0000000
 NucSpn=           0           0           0           0           0           0           0           0           0           0
 AtZEff=  -0.0000000  -0.0000000  -0.0000000  -0.0000000  -0.0000000  -0.0000000  -0.0000000  -0.0000000  -0.0000000  -0.0000000
 NQMom=    0.0000000   0.0000000   0.0000000   0.0000000   0.0000000   0.0000000   0.0000000   0.0000000   0.0000000   0.0000000
 NMagM=    0.0000000   0.0000000   0.0000000   0.0000000   0.0000000   0.0000000   0.0000000   0.0000000   0.0000000   0.0000000
 AtZNuc=   6.0000000   6.0000000   6.0000000   6.0000000   6.0000000   6.0000000   6.0000000   6.0000000   6.0000000   6.0000000

  Atom        11          12          13          14          15          16          17          18          19          20
 IAtWgt=           1          12          12          12           1           1           1           1           1          12
 AtmWgt=   1.0078250  12.0000000  12.0000000  12.0000000   1.0078250   1.0078250   1.0078250   1.0078250   1.0078250  12.0000000
 NucSpn=           1           0           0           0           1           1           1           1           1           0
 AtZEff=  -0.0000000  -0.0000000  -0.0000000  -0.0000000  -0.0000000  -0.0000000  -0.0000000  -0.0000000  -0.0000000  -0.0000000
 NQMom=    0.0000000   0.0000000   0.0000000   0.0000000   0.0000000   0.0000000   0.0000000   0.0000000   0.0000000   0.0000000
 NMagM=    2.7928460   0.0000000   0.0000000   0.0000000   2.7928460   2.7928460   2.7928460   2.7928460   2.7928460   0.0000000
 AtZNuc=   1.0000000   6.0000000   6.0000000   6.0000000   1.0000000   1.0000000   1.0000000   1.0000000   1.0000000   6.0000000

  Atom        21          22          23          24          25          26          27          28          29          30
 IAtWgt=          12          12          12          12           1          12           1           1           1          16
 AtmWgt=  12.0000000  12.0000000  12.0000000  12.0000000   1.0078250  12.0000000   1.0078250   1.0078250   1.0078250  15.9949146
 NucSpn=           0           0           0           0           1           0           1           1           1           0
 AtZEff=  -0.0000000  -0.0000000  -0.0000000  -0.0000000  -0.0000000  -0.0000000  -0.0000000  -0.0000000  -0.0000000  -0.0000000
 NQMom=    0.0000000   0.0000000   0.0000000   0.0000000   0.0000000   0.0000000   0.0000000   0.0000000   0.0000000   0.0000000
 NMagM=    0.0000000   0.0000000   0.0000000   0.0000000   2.7928460   0.0000000   2.7928460   2.7928460   2.7928460   0.0000000
 AtZNuc=   6.0000000   6.0000000   6.0000000   6.0000000   1.0000000   6.0000000   1.0000000   1.0000000   1.0000000   8.0000000

  Atom        31          32          33          34          35          36          37          38          39          40
 IAtWgt=          14          14          12          16          16           1          12           1           1          12
 AtmWgt=  14.0030740  14.0030740  12.0000000  15.9949146  15.9949146   1.0078250  12.0000000   1.0078250   1.0078250  12.0000000
 NucSpn=           2           2           0           0           0           1           0           1           1           0
 AtZEff=  -0.0000000  -0.0000000  -0.0000000  -0.0000000  -0.0000000  -0.0000000  -0.0000000  -0.0000000  -0.0000000  -0.0000000
 NQMom=    2.0440000   2.0440000   0.0000000   0.0000000   0.0000000   0.0000000   0.0000000   0.0000000   0.0000000   0.0000000
 NMagM=    0.4037610   0.4037610   0.0000000   0.0000000   0.0000000   2.7928460   0.0000000   2.7928460   2.7928460   0.0000000
 AtZNuc=   7.0000000   7.0000000   6.0000000   8.0000000   8.0000000   1.0000000   6.0000000   1.0000000   1.0000000   6.0000000

  Atom        41          42          43          44          45          46          47          48          49          50
 IAtWgt=           1           1           1          12           1           1          12           1           1           1
 AtmWgt=   1.0078250   1.0078250   1.0078250  12.0000000   1.0078250   1.0078250  12.0000000   1.0078250   1.0078250   1.0078250
 NucSpn=           1           1           1           0           1           1           0           1           1           1
 AtZEff=  -0.0000000  -0.0000000  -0.0000000  -0.0000000  -0.0000000  -0.0000000  -0.0000000  -0.0000000  -0.0000000  -0.0000000
 NQMom=    0.0000000   0.0000000   0.0000000   0.0000000   0.0000000   0.0000000   0.0000000   0.0000000   0.0000000   0.0000000
 NMagM=    2.7928460   2.7928460   2.7928460   0.0000000   2.7928460   2.7928460   0.0000000   2.7928460   2.7928460   2.7928460
 AtZNuc=   1.0000000   1.0000000   1.0000000   6.0000000   1.0000000   1.0000000   6.0000000   1.0000000   1.0000000   1.0000000

  Atom        51          52          53          54          55          56          57          58          59          60
 IAtWgt=          12           1           1          12           1           1          12           1           1           1
 AtmWgt=  12.0000000   1.0078250   1.0078250  12.0000000   1.0078250   1.0078250  12.0000000   1.0078250   1.0078250   1.0078250
 NucSpn=           0           1           1           0           1           1           0           1           1           1
 AtZEff=  -0.0000000  -0.0000000  -0.0000000  -0.0000000  -0.0000000  -0.0000000  -0.0000000  -0.0000000  -0.0000000  -0.0000000
 NQMom=    0.0000000   0.0000000   0.0000000   0.0000000   0.0000000   0.0000000   0.0000000   0.0000000   0.0000000   0.0000000
 NMagM=    0.0000000   2.7928460   2.7928460   0.0000000   2.7928460   2.7928460   0.0000000   2.7928460   2.7928460   2.7928460
 AtZNuc=   6.0000000   1.0000000   1.0000000   6.0000000   1.0000000   1.0000000   6.0000000   1.0000000   1.0000000   1.0000000

  Atom        61          62          63          64
 IAtWgt=          12           1           1           1
 AtmWgt=  12.0000000   1.0078250   1.0078250   1.0078250
 NucSpn=           0           1           1           1
 AtZEff=  -0.0000000  -0.0000000  -0.0000000  -0.0000000
 NQMom=    0.0000000   0.0000000   0.0000000   0.0000000
 NMagM=    0.0000000   2.7928460   2.7928460   2.7928460
 AtZNuc=   6.0000000   1.0000000   1.0000000   1.0000000
 Leave Link  101 at Thu Jun 10 22:34:00 2021, MaxMem=   134217728 cpu:               2.9 elap:               0.2
 (Enter /APL/ISV/x86_64/gaussian/16/C.01/g16/l103.exe)

 GradGradGradGradGradGradGradGradGradGradGradGradGradGradGradGradGradGrad
 Berny optimization.
 Initialization pass.
                           ----------------------------
                           !    Initial Parameters    !
                           ! (Angstroms and Degrees)  !
 --------------------------                            --------------------------
 ! Name  Definition              Value          Derivative Info.                !
 --------------------------------------------------------------------------------
 ! R1    R(1,2)                  1.4219         estimate D2E/DX2                !
 ! R2    R(1,6)                  1.4413         estimate D2E/DX2                !
 ! R3    R(1,31)                 1.3594         estimate D2E/DX2                !
 ! R4    R(2,3)                  1.3819         estimate D2E/DX2                !
 ! R5    R(2,15)                 1.0863         estimate D2E/DX2                !
 ! R6    R(3,4)                  1.4261         estimate D2E/DX2                !
 ! R7    R(3,30)                 1.3631         estimate D2E/DX2                !
 ! R8    R(4,5)                  1.4251         estimate D2E/DX2                !
 ! R9    R(4,7)                  1.4109         estimate D2E/DX2                !
 ! R10   R(5,6)                  1.3706         estimate D2E/DX2                !
 ! R11   R(5,16)                 1.0903         estimate D2E/DX2                !
 ! R12   R(6,17)                 1.087          estimate D2E/DX2                !
 ! R13   R(7,8)                  1.4099         estimate D2E/DX2                !
 ! R14   R(7,20)                 1.498          estimate D2E/DX2                !
 ! R15   R(8,9)                  1.4271         estimate D2E/DX2                !
 ! R16   R(8,14)                 1.427          estimate D2E/DX2                !
 ! R17   R(9,10)                 1.3823         estimate D2E/DX2                !
 ! R18   R(9,30)                 1.3616         estimate D2E/DX2                !
 ! R19   R(10,11)                1.0867         estimate D2E/DX2                !
 ! R20   R(10,12)                1.4212         estimate D2E/DX2                !
 ! R21   R(12,13)                1.442          estimate D2E/DX2                !
 ! R22   R(12,32)                1.358          estimate D2E/DX2                !
 ! R23   R(13,14)                1.3696         estimate D2E/DX2                !
 ! R24   R(13,18)                1.0872         estimate D2E/DX2                !
 ! R25   R(14,19)                1.0902         estimate D2E/DX2                !
 ! R26   R(20,21)                1.4154         estimate D2E/DX2                !
 ! R27   R(20,22)                1.4048         estimate D2E/DX2                !
 ! R28   R(21,23)                1.4052         estimate D2E/DX2                !
 ! R29   R(21,33)                1.4984         estimate D2E/DX2                !
 ! R30   R(22,24)                1.3965         estimate D2E/DX2                !
 ! R31   R(22,25)                1.092          estimate D2E/DX2                !
 ! R32   R(23,26)                1.3924         estimate D2E/DX2                !
 ! R33   R(23,27)                1.0907         estimate D2E/DX2                !
 ! R34   R(24,26)                1.3971         estimate D2E/DX2                !
 ! R35   R(24,28)                1.0919         estimate D2E/DX2                !
 ! R36   R(26,29)                1.0914         estimate D2E/DX2                !
 ! R37   R(31,51)                1.4704         estimate D2E/DX2                !
 ! R38   R(31,54)                1.4831         estimate D2E/DX2                !
 ! R39   R(32,37)                1.4715         estimate D2E/DX2                !
 ! R40   R(32,44)                1.4701         estimate D2E/DX2                !
 ! R41   R(33,34)                1.2107         estimate D2E/DX2                !
 ! R42   R(33,35)                1.3556         estimate D2E/DX2                !
 ! R43   R(35,36)                0.9754         estimate D2E/DX2                !
 ! R44   R(37,38)                1.0997         estimate D2E/DX2                !
 ! R45   R(37,39)                1.0984         estimate D2E/DX2                !
 ! R46   R(37,40)                1.5313         estimate D2E/DX2                !
 ! R47   R(40,41)                1.1003         estimate D2E/DX2                !
 ! R48   R(40,42)                1.1004         estimate D2E/DX2                !
 ! R49   R(40,43)                1.1008         estimate D2E/DX2                !
 ! R50   R(44,45)                1.099          estimate D2E/DX2                !
 ! R51   R(44,46)                1.0997         estimate D2E/DX2                !
 ! R52   R(44,47)                1.5315         estimate D2E/DX2                !
 ! R53   R(47,48)                1.1008         estimate D2E/DX2                !
 ! R54   R(47,49)                1.1003         estimate D2E/DX2                !
 ! R55   R(47,50)                1.1004         estimate D2E/DX2                !
 ! R56   R(51,52)                1.0941         estimate D2E/DX2                !
 ! R57   R(51,53)                1.0997         estimate D2E/DX2                !
 ! R58   R(51,61)                1.531          estimate D2E/DX2                !
 ! R59   R(54,55)                1.102          estimate D2E/DX2                !
 ! R60   R(54,56)                1.1035         estimate D2E/DX2                !
 ! R61   R(54,57)                1.5237         estimate D2E/DX2                !
 ! R62   R(57,58)                1.0997         estimate D2E/DX2                !
 ! R63   R(57,59)                1.1003         estimate D2E/DX2                !
 ! R64   R(57,60)                1.0994         estimate D2E/DX2                !
 ! R65   R(61,62)                1.1004         estimate D2E/DX2                !
 ! R66   R(61,63)                1.1011         estimate D2E/DX2                !
 ! R67   R(61,64)                1.1004         estimate D2E/DX2                !
 ! A1    A(2,1,6)              117.0813         estimate D2E/DX2                !
 ! A2    A(2,1,31)             122.1266         estimate D2E/DX2                !
 ! A3    A(6,1,31)             120.792          estimate D2E/DX2                !
 ! A4    A(1,2,3)              120.3807         estimate D2E/DX2                !
 ! A5    A(1,2,15)             122.396          estimate D2E/DX2                !
 ! A6    A(3,2,15)             117.2221         estimate D2E/DX2                !
 ! A7    A(2,3,4)              123.0766         estimate D2E/DX2                !
 ! A8    A(2,3,30)             116.2675         estimate D2E/DX2                !
 ! A9    A(4,3,30)             120.6552         estimate D2E/DX2                !
 ! A10   A(3,4,5)              115.9216         estimate D2E/DX2                !
 ! A11   A(3,4,7)              119.4506         estimate D2E/DX2                !
 ! A12   A(5,4,7)              124.6277         estimate D2E/DX2                !
 ! A13   A(4,5,6)              122.0526         estimate D2E/DX2                !
 ! A14   A(4,5,16)             118.6148         estimate D2E/DX2                !
 ! A15   A(6,5,16)             119.3325         estimate D2E/DX2                !
 ! A16   A(1,6,5)              121.4788         estimate D2E/DX2                !
 ! A17   A(1,6,17)             120.1739         estimate D2E/DX2                !
 ! A18   A(5,6,17)             118.3472         estimate D2E/DX2                !
 ! A19   A(4,7,8)              118.812          estimate D2E/DX2                !
 ! A20   A(4,7,20)             120.5161         estimate D2E/DX2                !
 ! A21   A(8,7,20)             120.547          estimate D2E/DX2                !
 ! A22   A(7,8,9)              119.432          estimate D2E/DX2                !
 ! A23   A(7,8,14)             124.6071         estimate D2E/DX2                !
 ! A24   A(9,8,14)             115.9594         estimate D2E/DX2                !
 ! A25   A(8,9,10)             123.0249         estimate D2E/DX2                !
 ! A26   A(8,9,30)             120.6874         estimate D2E/DX2                !
 ! A27   A(10,9,30)            116.2865         estimate D2E/DX2                !
 ! A28   A(9,10,11)            117.4324         estimate D2E/DX2                !
 ! A29   A(9,10,12)            120.3689         estimate D2E/DX2                !
 ! A30   A(11,10,12)           122.1889         estimate D2E/DX2                !
 ! A31   A(10,12,13)           117.1762         estimate D2E/DX2                !
 ! A32   A(10,12,32)           121.6587         estimate D2E/DX2                !
 ! A33   A(13,12,32)           121.1649         estimate D2E/DX2                !
 ! A34   A(12,13,14)           121.4715         estimate D2E/DX2                !
 ! A35   A(12,13,18)           119.9645         estimate D2E/DX2                !
 ! A36   A(14,13,18)           118.5552         estimate D2E/DX2                !
 ! A37   A(8,14,13)            121.9986         estimate D2E/DX2                !
 ! A38   A(8,14,19)            118.595          estimate D2E/DX2                !
 ! A39   A(13,14,19)           119.4048         estimate D2E/DX2                !
 ! A40   A(7,20,21)            124.7023         estimate D2E/DX2                !
 ! A41   A(7,20,22)            116.4785         estimate D2E/DX2                !
 ! A42   A(21,20,22)           118.818          estimate D2E/DX2                !
 ! A43   A(20,21,23)           119.3342         estimate D2E/DX2                !
 ! A44   A(20,21,33)           125.3804         estimate D2E/DX2                !
 ! A45   A(23,21,33)           115.2849         estimate D2E/DX2                !
 ! A46   A(20,22,24)           121.1185         estimate D2E/DX2                !
 ! A47   A(20,22,25)           119.1301         estimate D2E/DX2                !
 ! A48   A(24,22,25)           119.7512         estimate D2E/DX2                !
 ! A49   A(21,23,26)           121.2287         estimate D2E/DX2                !
 ! A50   A(21,23,27)           117.5575         estimate D2E/DX2                !
 ! A51   A(26,23,27)           121.2138         estimate D2E/DX2                !
 ! A52   A(22,24,26)           119.9861         estimate D2E/DX2                !
 ! A53   A(22,24,28)           119.5885         estimate D2E/DX2                !
 ! A54   A(26,24,28)           120.4254         estimate D2E/DX2                !
 ! A55   A(23,26,24)           119.514          estimate D2E/DX2                !
 ! A56   A(23,26,29)           120.0513         estimate D2E/DX2                !
 ! A57   A(24,26,29)           120.4346         estimate D2E/DX2                !
 ! A58   A(3,30,9)             120.9572         estimate D2E/DX2                !
 ! A59   A(1,31,51)            120.488          estimate D2E/DX2                !
 ! A60   A(1,31,54)            118.9354         estimate D2E/DX2                !
 ! A61   A(51,31,54)           120.404          estimate D2E/DX2                !
 ! A62   A(12,32,37)           122.406          estimate D2E/DX2                !
 ! A63   A(12,32,44)           121.8232         estimate D2E/DX2                !
 ! A64   A(37,32,44)           115.7707         estimate D2E/DX2                !
 ! A65   A(21,33,34)           123.8386         estimate D2E/DX2                !
 ! A66   A(21,33,35)           113.9898         estimate D2E/DX2                !
 ! A67   A(34,33,35)           122.1715         estimate D2E/DX2                !
 ! A68   A(33,35,36)           105.8612         estimate D2E/DX2                !
 ! A69   A(32,37,38)           106.6506         estimate D2E/DX2                !
 ! A70   A(32,37,39)           109.1533         estimate D2E/DX2                !
 ! A71   A(32,37,40)           113.7811         estimate D2E/DX2                !
 ! A72   A(38,37,39)           105.7788         estimate D2E/DX2                !
 ! A73   A(38,37,40)           110.1031         estimate D2E/DX2                !
 ! A74   A(39,37,40)           110.9824         estimate D2E/DX2                !
 ! A75   A(37,40,41)           111.6895         estimate D2E/DX2                !
 ! A76   A(37,40,42)           111.4541         estimate D2E/DX2                !
 ! A77   A(37,40,43)           109.801          estimate D2E/DX2                !
 ! A78   A(41,40,42)           107.9435         estimate D2E/DX2                !
 ! A79   A(41,40,43)           108.0627         estimate D2E/DX2                !
 ! A80   A(42,40,43)           107.7437         estimate D2E/DX2                !
 ! A81   A(32,44,45)           108.9572         estimate D2E/DX2                !
 ! A82   A(32,44,46)           106.7583         estimate D2E/DX2                !
 ! A83   A(32,44,47)           113.7249         estimate D2E/DX2                !
 ! A84   A(45,44,46)           105.9435         estimate D2E/DX2                !
 ! A85   A(45,44,47)           110.909          estimate D2E/DX2                !
 ! A86   A(46,44,47)           110.1786         estimate D2E/DX2                !
 ! A87   A(44,47,48)           109.7885         estimate D2E/DX2                !
 ! A88   A(44,47,49)           111.7249         estimate D2E/DX2                !
 ! A89   A(44,47,50)           111.4037         estimate D2E/DX2                !
 ! A90   A(48,47,49)           108.0972         estimate D2E/DX2                !
 ! A91   A(48,47,50)           107.7345         estimate D2E/DX2                !
 ! A92   A(49,47,50)           107.9469         estimate D2E/DX2                !
 ! A93   A(31,51,52)           107.9279         estimate D2E/DX2                !
 ! A94   A(31,51,53)           108.4995         estimate D2E/DX2                !
 ! A95   A(31,51,61)           113.9088         estimate D2E/DX2                !
 ! A96   A(52,51,53)           105.5435         estimate D2E/DX2                !
 ! A97   A(52,51,61)           109.8022         estimate D2E/DX2                !
 ! A98   A(53,51,61)           110.7834         estimate D2E/DX2                !
 ! A99   A(31,54,55)           108.1193         estimate D2E/DX2                !
 ! A100  A(31,54,56)           108.2755         estimate D2E/DX2                !
 ! A101  A(31,54,57)           116.0102         estimate D2E/DX2                !
 ! A102  A(55,54,56)           106.805          estimate D2E/DX2                !
 ! A103  A(55,54,57)           108.2688         estimate D2E/DX2                !
 ! A104  A(56,54,57)           108.9906         estimate D2E/DX2                !
 ! A105  A(54,57,58)           112.4574         estimate D2E/DX2                !
 ! A106  A(54,57,59)           107.7098         estimate D2E/DX2                !
 ! A107  A(54,57,60)           112.9455         estimate D2E/DX2                !
 ! A108  A(58,57,59)           107.2061         estimate D2E/DX2                !
 ! A109  A(58,57,60)           108.9203         estimate D2E/DX2                !
 ! A110  A(59,57,60)           107.3081         estimate D2E/DX2                !
 ! A111  A(51,61,62)           111.9179         estimate D2E/DX2                !
 ! A112  A(51,61,63)           109.6783         estimate D2E/DX2                !
 ! A113  A(51,61,64)           111.3238         estimate D2E/DX2                !
 ! A114  A(62,61,63)           108.0486         estimate D2E/DX2                !
 ! A115  A(62,61,64)           107.8317         estimate D2E/DX2                !
 ! A116  A(63,61,64)           107.8966         estimate D2E/DX2                !
 ! D1    D(6,1,2,3)              1.0909         estimate D2E/DX2                !
 ! D2    D(6,1,2,15)          -178.4938         estimate D2E/DX2                !
 ! D3    D(31,1,2,3)          -178.8345         estimate D2E/DX2                !
 ! D4    D(31,1,2,15)            1.5808         estimate D2E/DX2                !
 ! D5    D(2,1,6,5)             -0.9679         estimate D2E/DX2                !
 ! D6    D(2,1,6,17)           179.1401         estimate D2E/DX2                !
 ! D7    D(31,1,6,5)           178.9586         estimate D2E/DX2                !
 ! D8    D(31,1,6,17)           -0.9335         estimate D2E/DX2                !
 ! D9    D(2,1,31,51)           -1.8797         estimate D2E/DX2                !
 ! D10   D(2,1,31,54)         -177.1242         estimate D2E/DX2                !
 ! D11   D(6,1,31,51)          178.1976         estimate D2E/DX2                !
 ! D12   D(6,1,31,54)            2.9531         estimate D2E/DX2                !
 ! D13   D(1,2,3,4)             -0.6581         estimate D2E/DX2                !
 ! D14   D(1,2,3,30)           179.6582         estimate D2E/DX2                !
 ! D15   D(15,2,3,4)           178.9476         estimate D2E/DX2                !
 ! D16   D(15,2,3,30)           -0.7361         estimate D2E/DX2                !
 ! D17   D(2,3,4,5)              0.0358         estimate D2E/DX2                !
 ! D18   D(2,3,4,7)            179.9164         estimate D2E/DX2                !
 ! D19   D(30,3,4,5)           179.7061         estimate D2E/DX2                !
 ! D20   D(30,3,4,7)            -0.4133         estimate D2E/DX2                !
 ! D21   D(2,3,30,9)           179.7849         estimate D2E/DX2                !
 ! D22   D(4,3,30,9)             0.0929         estimate D2E/DX2                !
 ! D23   D(3,4,5,6)              0.1028         estimate D2E/DX2                !
 ! D24   D(3,4,5,16)          -179.8012         estimate D2E/DX2                !
 ! D25   D(7,4,5,6)           -179.7708         estimate D2E/DX2                !
 ! D26   D(7,4,5,16)             0.3252         estimate D2E/DX2                !
 ! D27   D(3,4,7,8)              0.7981         estimate D2E/DX2                !
 ! D28   D(3,4,7,20)           176.7585         estimate D2E/DX2                !
 ! D29   D(5,4,7,8)           -179.3324         estimate D2E/DX2                !
 ! D30   D(5,4,7,20)            -3.3721         estimate D2E/DX2                !
 ! D31   D(4,5,6,1)              0.3809         estimate D2E/DX2                !
 ! D32   D(4,5,6,17)          -179.7251         estimate D2E/DX2                !
 ! D33   D(16,5,6,1)          -179.7158         estimate D2E/DX2                !
 ! D34   D(16,5,6,17)            0.1782         estimate D2E/DX2                !
 ! D35   D(4,7,8,9)             -0.8716         estimate D2E/DX2                !
 ! D36   D(4,7,8,14)           179.6007         estimate D2E/DX2                !
 ! D37   D(20,7,8,9)          -176.8307         estimate D2E/DX2                !
 ! D38   D(20,7,8,14)            3.6416         estimate D2E/DX2                !
 ! D39   D(4,7,20,21)           92.5735         estimate D2E/DX2                !
 ! D40   D(4,7,20,22)          -87.8261         estimate D2E/DX2                !
 ! D41   D(8,7,20,21)          -91.5365         estimate D2E/DX2                !
 ! D42   D(8,7,20,22)           88.0638         estimate D2E/DX2                !
 ! D43   D(7,8,9,10)          -179.8361         estimate D2E/DX2                !
 ! D44   D(7,8,9,30)             0.5659         estimate D2E/DX2                !
 ! D45   D(14,8,9,10)           -0.2684         estimate D2E/DX2                !
 ! D46   D(14,8,9,30)         -179.8664         estimate D2E/DX2                !
 ! D47   D(7,8,14,13)          179.7129         estimate D2E/DX2                !
 ! D48   D(7,8,14,19)            0.1723         estimate D2E/DX2                !
 ! D49   D(9,8,14,13)            0.1704         estimate D2E/DX2                !
 ! D50   D(9,8,14,19)         -179.3703         estimate D2E/DX2                !
 ! D51   D(8,9,10,11)         -178.6331         estimate D2E/DX2                !
 ! D52   D(8,9,10,12)            0.2543         estimate D2E/DX2                !
 ! D53   D(30,9,10,11)           0.9813         estimate D2E/DX2                !
 ! D54   D(30,9,10,12)         179.8687         estimate D2E/DX2                !
 ! D55   D(8,9,30,3)            -0.1694         estimate D2E/DX2                !
 ! D56   D(10,9,30,3)         -179.7934         estimate D2E/DX2                !
 ! D57   D(9,10,12,13)          -0.1272         estimate D2E/DX2                !
 ! D58   D(9,10,12,32)         179.6893         estimate D2E/DX2                !
 ! D59   D(11,10,12,13)        178.706          estimate D2E/DX2                !
 ! D60   D(11,10,12,32)         -1.4775         estimate D2E/DX2                !
 ! D61   D(10,12,13,14)          0.0351         estimate D2E/DX2                !
 ! D62   D(10,12,13,18)        178.9372         estimate D2E/DX2                !
 ! D63   D(32,12,13,14)       -179.7823         estimate D2E/DX2                !
 ! D64   D(32,12,13,18)         -0.8802         estimate D2E/DX2                !
 ! D65   D(10,12,32,37)        175.5323         estimate D2E/DX2                !
 ! D66   D(10,12,32,44)         -4.4129         estimate D2E/DX2                !
 ! D67   D(13,12,32,37)         -4.6585         estimate D2E/DX2                !
 ! D68   D(13,12,32,44)        175.3963         estimate D2E/DX2                !
 ! D69   D(12,13,14,8)          -0.0629         estimate D2E/DX2                !
 ! D70   D(12,13,14,19)        179.4741         estimate D2E/DX2                !
 ! D71   D(18,13,14,8)        -178.9801         estimate D2E/DX2                !
 ! D72   D(18,13,14,19)          0.557          estimate D2E/DX2                !
 ! D73   D(7,20,21,23)         179.5912         estimate D2E/DX2                !
 ! D74   D(7,20,21,33)          -0.1593         estimate D2E/DX2                !
 ! D75   D(22,20,21,23)         -0.0005         estimate D2E/DX2                !
 ! D76   D(22,20,21,33)       -179.751          estimate D2E/DX2                !
 ! D77   D(7,20,22,24)        -179.8046         estimate D2E/DX2                !
 ! D78   D(7,20,22,25)           0.3674         estimate D2E/DX2                !
 ! D79   D(21,20,22,24)         -0.1796         estimate D2E/DX2                !
 ! D80   D(21,20,22,25)        179.9924         estimate D2E/DX2                !
 ! D81   D(20,21,23,26)          0.1118         estimate D2E/DX2                !
 ! D82   D(20,21,23,27)       -179.813          estimate D2E/DX2                !
 ! D83   D(33,21,23,26)        179.8868         estimate D2E/DX2                !
 ! D84   D(33,21,23,27)         -0.038          estimate D2E/DX2                !
 ! D85   D(20,21,33,34)        179.7572         estimate D2E/DX2                !
 ! D86   D(20,21,33,35)         -0.1669         estimate D2E/DX2                !
 ! D87   D(23,21,33,34)         -0.0022         estimate D2E/DX2                !
 ! D88   D(23,21,33,35)       -179.9263         estimate D2E/DX2                !
 ! D89   D(20,22,24,26)          0.25           estimate D2E/DX2                !
 ! D90   D(20,22,24,28)       -179.7953         estimate D2E/DX2                !
 ! D91   D(25,22,24,26)       -179.9231         estimate D2E/DX2                !
 ! D92   D(25,22,24,28)          0.0316         estimate D2E/DX2                !
 ! D93   D(21,23,26,24)         -0.044          estimate D2E/DX2                !
 ! D94   D(21,23,26,29)       -179.9827         estimate D2E/DX2                !
 ! D95   D(27,23,26,24)        179.8781         estimate D2E/DX2                !
 ! D96   D(27,23,26,29)         -0.0606         estimate D2E/DX2                !
 ! D97   D(22,24,26,23)         -0.1359         estimate D2E/DX2                !
 ! D98   D(22,24,26,29)        179.8025         estimate D2E/DX2                !
 ! D99   D(28,24,26,23)        179.9098         estimate D2E/DX2                !
 ! D100  D(28,24,26,29)         -0.1518         estimate D2E/DX2                !
 ! D101  D(1,31,51,52)         153.8725         estimate D2E/DX2                !
 ! D102  D(1,31,51,53)          39.9664         estimate D2E/DX2                !
 ! D103  D(1,31,51,61)         -83.925          estimate D2E/DX2                !
 ! D104  D(54,31,51,52)        -30.953          estimate D2E/DX2                !
 ! D105  D(54,31,51,53)       -144.8592         estimate D2E/DX2                !
 ! D106  D(54,31,51,61)         91.2494         estimate D2E/DX2                !
 ! D107  D(1,31,54,55)         -55.2749         estimate D2E/DX2                !
 ! D108  D(1,31,54,56)          60.0927         estimate D2E/DX2                !
 ! D109  D(1,31,54,57)        -177.0558         estimate D2E/DX2                !
 ! D110  D(51,31,54,55)        129.4764         estimate D2E/DX2                !
 ! D111  D(51,31,54,56)       -115.156          estimate D2E/DX2                !
 ! D112  D(51,31,54,57)          7.6956         estimate D2E/DX2                !
 ! D113  D(12,32,37,38)       -149.5702         estimate D2E/DX2                !
 ! D114  D(12,32,37,39)        -35.7209         estimate D2E/DX2                !
 ! D115  D(12,32,37,40)         88.8403         estimate D2E/DX2                !
 ! D116  D(44,32,37,38)         30.3781         estimate D2E/DX2                !
 ! D117  D(44,32,37,39)        144.2274         estimate D2E/DX2                !
 ! D118  D(44,32,37,40)        -91.2114         estimate D2E/DX2                !
 ! D119  D(12,32,44,45)        -36.1758         estimate D2E/DX2                !
 ! D120  D(12,32,44,46)       -150.1772         estimate D2E/DX2                !
 ! D121  D(12,32,44,47)         88.0979         estimate D2E/DX2                !
 ! D122  D(37,32,44,45)        143.8755         estimate D2E/DX2                !
 ! D123  D(37,32,44,46)         29.8742         estimate D2E/DX2                !
 ! D124  D(37,32,44,47)        -91.8507         estimate D2E/DX2                !
 ! D125  D(21,33,35,36)       -179.8959         estimate D2E/DX2                !
 ! D126  D(34,33,35,36)          0.1786         estimate D2E/DX2                !
 ! D127  D(32,37,40,41)        -62.7808         estimate D2E/DX2                !
 ! D128  D(32,37,40,42)         58.0524         estimate D2E/DX2                !
 ! D129  D(32,37,40,43)        177.3612         estimate D2E/DX2                !
 ! D130  D(38,37,40,41)        177.5679         estimate D2E/DX2                !
 ! D131  D(38,37,40,42)        -61.5989         estimate D2E/DX2                !
 ! D132  D(38,37,40,43)         57.7099         estimate D2E/DX2                !
 ! D133  D(39,37,40,41)         60.7922         estimate D2E/DX2                !
 ! D134  D(39,37,40,42)       -178.3746         estimate D2E/DX2                !
 ! D135  D(39,37,40,43)        -59.0658         estimate D2E/DX2                !
 ! D136  D(32,44,47,48)        177.3197         estimate D2E/DX2                !
 ! D137  D(32,44,47,49)        -62.7645         estimate D2E/DX2                !
 ! D138  D(32,44,47,50)         58.0625         estimate D2E/DX2                !
 ! D139  D(45,44,47,48)        -59.4662         estimate D2E/DX2                !
 ! D140  D(45,44,47,49)         60.4496         estimate D2E/DX2                !
 ! D141  D(45,44,47,50)       -178.7235         estimate D2E/DX2                !
 ! D142  D(46,44,47,48)         57.514          estimate D2E/DX2                !
 ! D143  D(46,44,47,49)        177.4298         estimate D2E/DX2                !
 ! D144  D(46,44,47,50)        -61.7432         estimate D2E/DX2                !
 ! D145  D(31,51,61,62)         60.1423         estimate D2E/DX2                !
 ! D146  D(31,51,61,63)       -179.9523         estimate D2E/DX2                !
 ! D147  D(31,51,61,64)        -60.6151         estimate D2E/DX2                !
 ! D148  D(52,51,61,62)       -178.693          estimate D2E/DX2                !
 ! D149  D(52,51,61,63)        -58.7875         estimate D2E/DX2                !
 ! D150  D(52,51,61,64)         60.5496         estimate D2E/DX2                !
 ! D151  D(53,51,61,62)        -62.5067         estimate D2E/DX2                !
 ! D152  D(53,51,61,63)         57.3987         estimate D2E/DX2                !
 ! D153  D(53,51,61,64)        176.7359         estimate D2E/DX2                !
 ! D154  D(31,54,57,58)         62.606          estimate D2E/DX2                !
 ! D155  D(31,54,57,59)       -179.4895         estimate D2E/DX2                !
 ! D156  D(31,54,57,60)        -61.1735         estimate D2E/DX2                !
 ! D157  D(55,54,57,58)        -59.0955         estimate D2E/DX2                !
 ! D158  D(55,54,57,59)         58.809          estimate D2E/DX2                !
 ! D159  D(55,54,57,60)        177.1251         estimate D2E/DX2                !
 ! D160  D(56,54,57,58)       -174.9186         estimate D2E/DX2                !
 ! D161  D(56,54,57,59)        -57.0141         estimate D2E/DX2                !
 ! D162  D(56,54,57,60)         61.302          estimate D2E/DX2                !
 --------------------------------------------------------------------------------
 Trust Radius=3.00D-01 FncErr=1.00D-07 GrdErr=1.00D-06 EigMax=2.50D+02 EigMin=1.00D-04
 Number of steps in this run=    355 maximum allowed number of steps=    384.
 GradGradGradGradGradGradGradGradGradGradGradGradGradGradGradGradGradGrad

 Leave Link  103 at Thu Jun 10 22:34:00 2021, MaxMem=   134217728 cpu:               0.2 elap:               0.0
 (Enter /APL/ISV/x86_64/gaussian/16/C.01/g16/l202.exe)
 Stoichiometry    C28H31N2O3(1+)
 Framework group  C1[X(C28H31N2O3)]
 Deg. of freedom   186
 Full point group                 C1      NOp   1
 Largest Abelian subgroup         C1      NOp   1
 Largest concise Abelian subgroup C1      NOp   1
                         Standard orientation:                         
 ---------------------------------------------------------------------
 Center     Atomic      Atomic             Coordinates (Angstroms)
 Number     Number       Type             X           Y           Z
 ---------------------------------------------------------------------
      1          6           0       -3.656416   -0.949826    0.096689
      2          6           0       -2.407672   -1.627286    0.156144
      3          6           0       -1.225112   -0.927232    0.010378
      4          6           0       -1.176536    0.479821   -0.217093
      5          6           0       -2.435793    1.143346   -0.287476
      6          6           0       -3.621366    0.470897   -0.143214
      7          6           0        0.074557    1.117786   -0.352993
      8          6           0        1.246756    0.338101   -0.276345
      9          6           0        1.141030   -1.066300   -0.045747
     10          6           0        2.240117   -1.899517    0.045935
     11          1           0        2.053741   -2.958897    0.200701
     12          6           0        3.553791   -1.373025   -0.084485
     13          6           0        3.675013    0.045255   -0.315335
     14          6           0        2.571824    0.852053   -0.404609
     15          1           0       -2.334359   -2.700340    0.308538
     16          1           0       -2.449976    2.219300   -0.463308
     17          1           0       -4.547195    1.036365   -0.212212
     18          1           0        4.659122    0.498725   -0.404768
     19          1           0        2.702843    1.921430   -0.571257
     20          6           0        0.152435    2.581022   -0.664210
     21          6           0        0.246701    3.607280    0.305946
     22          6           0        0.137151    2.933880   -2.023933
     23          6           0        0.322238    4.946323   -0.113510
     24          6           0        0.209286    4.270032   -2.423698
     25          1           0        0.064695    2.146199   -2.776732
     26          6           0        0.303730    5.281646   -1.464758
     27          1           0        0.397173    5.713385    0.658242
     28          1           0        0.192077    4.516231   -3.487303
     29          1           0        0.363750    6.328057   -1.769088
     30          8           0       -0.077542   -1.658595    0.088780
     31          7           0       -4.839601   -1.599258    0.258546
     32          7           0        4.652067   -2.166521    0.007315
     33          6           0        0.280184    3.398437    1.789309
     34          8           0        0.365689    4.298061    2.595057
     35          8           0        0.207387    2.097855    2.164567
     36          1           0        0.236741    2.099657    3.139476
     37          6           0        6.013885   -1.657570   -0.219991
     38          1           0        6.599734   -2.495227   -0.625417
     39          1           0        5.987373   -0.899478   -1.014447
     40          6           0        6.685813   -1.107035    1.041043
     41          1           0        6.143535   -0.238902    1.444786
     42          1           0        6.742377   -1.869454    1.832476
     43          1           0        7.713455   -0.789081    0.807466
     44          6           0        4.550855   -3.594731    0.340698
     45          1           0        3.740138   -3.734681    1.069330
     46          1           0        5.478752   -3.864308    0.865739
     47          6           0        4.351928   -4.499559   -0.878807
     48          1           0        4.332793   -5.553539   -0.561697
     49          1           0        3.406520   -4.281570   -1.397807
     50          1           0        5.171527   -4.382448   -1.603722
     51          6           0       -4.869631   -3.054973    0.463646
     52          1           0       -5.781977   -3.298475    1.016192
     53          1           0       -4.039228   -3.330698    1.129783
     54          6           0       -6.102716   -0.834739    0.118911
     55          1           0       -6.066036    0.017981    0.815956
     56          1           0       -6.140855   -0.412554   -0.899942
     57          6           0       -7.386642   -1.611806    0.381996
     58          1           0       -7.448601   -1.983339    1.415227
     59          1           0       -8.231403   -0.922854    0.232654
     60          1           0       -7.526379   -2.455315   -0.309130
     61          6           0       -4.817231   -3.865632   -0.834050
     62          1           0       -3.899925   -3.664192   -1.407429
     63          1           0       -4.844296   -4.941341   -0.600591
     64          1           0       -5.676717   -3.638635   -1.482651
 ---------------------------------------------------------------------
 Rotational constants (GHZ):           0.1407332           0.0845262           0.0586741
 Leave Link  202 at Thu Jun 10 22:34:00 2021, MaxMem=   134217728 cpu:               0.1 elap:               0.0
 (Enter /APL/ISV/x86_64/gaussian/16/C.01/g16/l301.exe)
 Standard basis: CC-pVDZ (5D, 7F)
 Ernie: Thresh=  0.10000D-02 Tol=  0.10000D-05 Strict=F.
 Ernie:  66 primitive shells out of 881 were deleted.
 There are   650 symmetry adapted cartesian basis functions of A   symmetry.
 There are   617 symmetry adapted basis functions of A   symmetry.
   617 basis functions,  1306 primitive gaussians,   650 cartesian basis functions
   118 alpha electrons      118 beta electrons
       nuclear repulsion energy      3293.0584926062 Hartrees.
 IExCor=  402 DFT=T Ex+Corr=B3LYP ExCW=0 ScaHFX=  0.200000
 ScaDFX=  0.800000  0.720000  1.000000  0.810000 ScalE2=  1.000000  1.000000
 IRadAn=      5 IRanWt=     -1 IRanGd=            0 ICorTp=0 IEmpDi=  4
 NAtoms=   64 NActive=   64 NUniq=   64 SFac= 1.00D+00 NAtFMM=   60 NAOKFM=T Big=T
 Integral buffers will be    131072 words long.
 Raffenetti 2 integral format.
 Two-electron integral symmetry is turned on.
 Leave Link  301 at Thu Jun 10 22:34:00 2021, MaxMem=   134217728 cpu:               0.8 elap:               0.1
 (Enter /APL/ISV/x86_64/gaussian/16/C.01/g16/l302.exe)
 NPDir=0 NMtPBC=     1 NCelOv=     1 NCel=       1 NClECP=     1 NCelD=      1
         NCelK=      1 NCelE2=     1 NClLst=     1 CellRange=     0.0.
 One-electron integrals computed using PRISM.
 One-electron integral symmetry used in STVInt
 NBasis=   617 RedAO= T EigKep=  1.67D-04  NBF=   617
 NBsUse=   617 1.00D-06 EigRej= -1.00D+00 NBFU=   617
 Precomputing XC quadrature grid using
 IXCGrd= 4 IRadAn=           5 IRanWt=          -1 IRanGd=           0 AccXCQ= 0.00D+00.
 Generated NRdTot=       0 NPtTot=           0 NUsed=           0 NTot=          32
 NSgBfM=   638   638   638   638   638 MxSgAt=    64 MxSgA2=    64.
 Leave Link  302 at Thu Jun 10 22:34:01 2021, MaxMem=   134217728 cpu:              14.0 elap:               0.9
 (Enter /APL/ISV/x86_64/gaussian/16/C.01/g16/l303.exe)
 DipDrv:  MaxL=1.
 Leave Link  303 at Thu Jun 10 22:34:01 2021, MaxMem=   134217728 cpu:               1.7 elap:               0.1
 (Enter /APL/ISV/x86_64/gaussian/16/C.01/g16/l401.exe)
 ExpMin= 1.22D-01 ExpMax= 1.17D+04 ExpMxC= 4.01D+02 IAcc=3 IRadAn=         5 AccDes= 0.00D+00
 Harris functional with IExCor=  402 and IRadAn=       5 diagonalized for initial guess.
 HarFok:  IExCor=  402 AccDes= 0.00D+00 IRadAn=         5 IDoV= 1 UseB2=F ITyADJ=14
 ICtDFT=  3500011 ScaDFX=  1.000000  1.000000  1.000000  1.000000
 FoFCou: FMM=F IPFlag=           0 FMFlag=      100000 FMFlg1=        2001
         NFxFlg=           0 DoJE=T BraDBF=F KetDBF=T FulRan=T
         wScrn=  0.000000 ICntrl=       500 IOpCl=  0 I1Cent=   200000004 NGrid=           0
         NMat0=    1 NMatS0=      1 NMatT0=    0 NMatD0=    1 NMtDS0=    0 NMtDT0=    0
 Petite list used in FoFCou.
 Harris En= -1420.66138083060    
 JPrj=0 DoOrth=F DoCkMO=F.
 Leave Link  401 at Thu Jun 10 22:34:04 2021, MaxMem=   134217728 cpu:              39.8 elap:               2.5
 (Enter /APL/ISV/x86_64/gaussian/16/C.01/g16/l502.exe)
 Integral symmetry usage will be decided dynamically.
 Closed shell SCF:
 Using DIIS extrapolation, IDIIS=  1040.
 NGot=   134217728 LenX=   133353898 LenY=   132930748
 Requested convergence on RMS density matrix=1.00D-08 within 128 cycles.
 Requested convergence on MAX density matrix=1.00D-06.
 Requested convergence on             energy=1.00D-06.
 No special actions if energy rises.
 Fock matrices will be formed incrementally for  20 cycles.
 Integral accuracy reduced to 1.0D-05 until final iterations.

 Cycle   1  Pass 0  IDiag  1:
 FoFJK:  IHMeth= 1 ICntrl=       0 DoSepK=F KAlg= 0 I1Cent=           0 FoldK=F
 IRaf= 980000000 NMat=       1 IRICut=       1 DoRegI=T DoRafI=F ISym2E= 0 IDoP0=0 IntGTp=1.
 FoFCou: FMM=T IPFlag=           0 FMFlag=      100000 FMFlg1=        2001
         NFxFlg=           0 DoJE=F BraDBF=F KetDBF=F FulRan=T
         wScrn=  0.000000 ICntrl=         0 IOpCl=  0 I1Cent=           0 NGrid=           0
         NMat0=    1 NMatS0=      1 NMatT0=    0 NMatD0=    1 NMtDS0=    0 NMtDT0=    0
 Symmetry not used in FoFCou.
 FMM levels:  10  Number of levels for PrismC:   9
 E= -1420.03819975060    
 DIIS: error= 2.67D-02 at cycle   1 NSaved=   1.
 NSaved= 1 IEnMin= 1 EnMin= -1420.03819975060     IErMin= 1 ErrMin= 2.67D-02
 ErrMax= 2.67D-02  0.00D+00 EMaxC= 1.00D-01 BMatC= 6.67D-01 BMatP= 6.67D-01
 IDIUse=3 WtCom= 7.33D-01 WtEn= 2.67D-01
 Coeff-Com:  0.100D+01
 Coeff-En:   0.100D+01
 Coeff:      0.100D+01
 Gap=     0.101 Goal=   None    Shift=    0.000
 GapD=    0.101 DampG=1.000 DampE=0.500 DampFc=0.5000 IDamp=-1.
 Damping current iteration by 5.00D-01
 RMSDP=3.55D-03 MaxDP=2.06D-01              OVMax= 2.48D-01

 Cycle   2  Pass 0  IDiag  1:
 RMSU=  1.71D-03    CP:  9.64D-01
 E= -1420.31459952713     Delta-E=       -0.276399776530 Rises=F Damp=T
 DIIS: error= 1.08D-02 at cycle   2 NSaved=   2.
 NSaved= 2 IEnMin= 2 EnMin= -1420.31459952713     IErMin= 2 ErrMin= 1.08D-02
 ErrMax= 1.08D-02  0.00D+00 EMaxC= 1.00D-01 BMatC= 6.53D-02 BMatP= 6.67D-01
 IDIUse=3 WtCom= 8.92D-01 WtEn= 1.08D-01
 Coeff-Com:  0.134D+00 0.866D+00
 Coeff-En:   0.193D+00 0.807D+00
 Coeff:      0.140D+00 0.860D+00
 Gap=     0.212 Goal=   None    Shift=    0.000
 RMSDP=1.26D-03 MaxDP=8.49D-02 DE=-2.76D-01 OVMax= 1.88D-01

 Cycle   3  Pass 0  IDiag  1:
 RMSU=  1.21D-03    CP:  9.39D-01  1.05D+00
 E= -1420.65356521085     Delta-E=       -0.338965683720 Rises=F Damp=F
 DIIS: error= 1.55D-02 at cycle   3 NSaved=   3.
 NSaved= 3 IEnMin= 3 EnMin= -1420.65356521085     IErMin= 2 ErrMin= 1.08D-02
 ErrMax= 1.55D-02  0.00D+00 EMaxC= 1.00D-01 BMatC= 9.33D-02 BMatP= 6.53D-02
 IDIUse=2 WtCom= 0.00D+00 WtEn= 1.00D+00
 Coeff-En:   0.000D+00 0.000D+00 0.100D+01
 Coeff:      0.000D+00 0.000D+00 0.100D+01
 Gap=     0.081 Goal=   None    Shift=    0.000
 RMSDP=1.85D-03 MaxDP=1.87D-01 DE=-3.39D-01 OVMax= 2.61D-01

 Cycle   4  Pass 0  IDiag  1:
 RMSU=  1.12D-03    CP:  9.46D-01  1.39D+00 -1.20D-01
 E= -1420.13114700039     Delta-E=        0.522418210466 Rises=F Damp=F
 DIIS: error= 4.09D-02 at cycle   4 NSaved=   4.
 NSaved= 4 IEnMin= 3 EnMin= -1420.65356521085     IErMin= 2 ErrMin= 1.08D-02
 ErrMax= 4.09D-02  0.00D+00 EMaxC= 1.00D-01 BMatC= 6.78D-01 BMatP= 6.53D-02
 IDIUse=2 WtCom= 0.00D+00 WtEn= 1.00D+00
 Coeff-En:   0.000D+00 0.000D+00 0.820D+00 0.180D+00
 Coeff:      0.000D+00 0.000D+00 0.820D+00 0.180D+00
 Gap=     0.124 Goal=   None    Shift=    0.000
 RMSDP=1.01D-03 MaxDP=9.09D-02 DE= 5.22D-01 OVMax= 1.55D-01

 Cycle   5  Pass 0  IDiag  1:
 RMSU=  2.20D-04    CP:  9.44D-01  1.17D+00  4.53D-01  4.73D-01
 E= -1420.68758475940     Delta-E=       -0.556437759014 Rises=F Damp=F
 DIIS: error= 1.26D-02 at cycle   5 NSaved=   5.
 NSaved= 5 IEnMin= 5 EnMin= -1420.68758475940     IErMin= 2 ErrMin= 1.08D-02
 ErrMax= 1.26D-02  0.00D+00 EMaxC= 1.00D-01 BMatC= 5.84D-02 BMatP= 6.53D-02
 IDIUse=3 WtCom= 8.74D-01 WtEn= 1.26D-01
 Coeff-Com:  0.107D-01 0.243D-01 0.419D+00-0.125D-01 0.558D+00
 Coeff-En:   0.000D+00 0.000D+00 0.407D+00 0.000D+00 0.593D+00
 Coeff:      0.932D-02 0.212D-01 0.418D+00-0.109D-01 0.563D+00
 Gap=     0.101 Goal=   None    Shift=    0.000
 RMSDP=3.99D-04 MaxDP=4.32D-02 DE=-5.56D-01 OVMax= 6.37D-02

 Cycle   6  Pass 0  IDiag  1:
 RMSU=  8.73D-05    CP:  9.42D-01  1.10D+00  6.90D-01  2.83D-01  5.63D-01
 E= -1420.73715822730     Delta-E=       -0.049573467896 Rises=F Damp=F
 DIIS: error= 1.02D-03 at cycle   6 NSaved=   6.
 NSaved= 6 IEnMin= 6 EnMin= -1420.73715822730     IErMin= 6 ErrMin= 1.02D-03
 ErrMax= 1.02D-03  0.00D+00 EMaxC= 1.00D-01 BMatC= 1.03D-03 BMatP= 5.84D-02
 IDIUse=3 WtCom= 9.90D-01 WtEn= 1.02D-02
 Coeff-Com:  0.110D-02 0.162D-02 0.175D+00-0.517D-01 0.397D+00 0.478D+00
 Coeff-En:   0.000D+00 0.000D+00 0.000D+00 0.000D+00 0.000D+00 0.100D+01
 Coeff:      0.108D-02 0.161D-02 0.173D+00-0.511D-01 0.393D+00 0.483D+00
 Gap=     0.104 Goal=   None    Shift=    0.000
 RMSDP=6.43D-05 MaxDP=5.05D-03 DE=-4.96D-02 OVMax= 1.34D-02

 Cycle   7  Pass 0  IDiag  1:
 RMSU=  3.04D-05    CP:  9.42D-01  1.11D+00  6.91D-01  2.71D-01  6.75D-01
                    CP:  4.50D-01
 E= -1420.73821106927     Delta-E=       -0.001052841976 Rises=F Damp=F
 DIIS: error= 4.39D-04 at cycle   7 NSaved=   7.
 NSaved= 7 IEnMin= 7 EnMin= -1420.73821106927     IErMin= 7 ErrMin= 4.39D-04
 ErrMax= 4.39D-04  0.00D+00 EMaxC= 1.00D-01 BMatC= 7.29D-05 BMatP= 1.03D-03
 IDIUse=3 WtCom= 9.96D-01 WtEn= 4.39D-03
 Coeff-Com:  0.297D-03 0.917D-03 0.889D-01-0.322D-01 0.217D+00 0.314D+00
 Coeff-Com:  0.410D+00
 Coeff-En:   0.000D+00 0.000D+00 0.000D+00 0.000D+00 0.000D+00 0.000D+00
 Coeff-En:   0.100D+01
 Coeff:      0.296D-03 0.913D-03 0.885D-01-0.320D-01 0.216D+00 0.313D+00
 Coeff:      0.413D+00
 Gap=     0.103 Goal=   None    Shift=    0.000
 RMSDP=1.75D-05 MaxDP=1.28D-03 DE=-1.05D-03 OVMax= 3.18D-03

 Cycle   8  Pass 0  IDiag  1:
 RMSU=  9.04D-06    CP:  9.42D-01  1.10D+00  6.91D-01  2.74D-01  6.88D-01
                    CP:  5.15D-01  5.64D-01
 E= -1420.73828114455     Delta-E=       -0.000070075273 Rises=F Damp=F
 DIIS: error= 8.37D-05 at cycle   8 NSaved=   8.
 NSaved= 8 IEnMin= 8 EnMin= -1420.73828114455     IErMin= 8 ErrMin= 8.37D-05
 ErrMax= 8.37D-05  0.00D+00 EMaxC= 1.00D-01 BMatC= 6.45D-06 BMatP= 7.29D-05
 IDIUse=1 WtCom= 1.00D+00 WtEn= 0.00D+00
 Coeff-Com:  0.105D-03 0.234D-03 0.245D-01-0.109D-01 0.619D-01 0.110D+00
 Coeff-Com:  0.217D+00 0.598D+00
 Coeff:      0.105D-03 0.234D-03 0.245D-01-0.109D-01 0.619D-01 0.110D+00
 Coeff:      0.217D+00 0.598D+00
 Gap=     0.104 Goal=   None    Shift=    0.000
 RMSDP=5.87D-06 MaxDP=4.61D-04 DE=-7.01D-05 OVMax= 1.09D-03

 Initial convergence to 1.0D-05 achieved.  Increase integral accuracy.
 Cycle   9  Pass 1  IDiag  1:
 E= -1420.73805785113     Delta-E=        0.000223293422 Rises=F Damp=F
 DIIS: error= 4.21D-04 at cycle   1 NSaved=   1.
 NSaved= 1 IEnMin= 1 EnMin= -1420.73805785113     IErMin= 1 ErrMin= 4.21D-04
 ErrMax= 4.21D-04  0.00D+00 EMaxC= 1.00D-01 BMatC= 4.79D-05 BMatP= 4.79D-05
 IDIUse=3 WtCom= 9.96D-01 WtEn= 4.21D-03
 Coeff-Com:  0.100D+01
 Coeff-En:   0.100D+01
 Coeff:      0.100D+01
 Gap=     0.103 Goal=   None    Shift=    0.000
 RMSDP=5.87D-06 MaxDP=4.61D-04 DE= 2.23D-04 OVMax= 7.05D-04

 Cycle  10  Pass 1  IDiag  1:
 RMSU=  2.63D-04    CP:  9.99D-01
 E= -1420.73809244648     Delta-E=       -0.000034595352 Rises=F Damp=F
 DIIS: error= 9.15D-05 at cycle   2 NSaved=   2.
 NSaved= 2 IEnMin= 2 EnMin= -1420.73809244648     IErMin= 2 ErrMin= 9.15D-05
 ErrMax= 9.15D-05  0.00D+00 EMaxC= 1.00D-01 BMatC= 4.29D-06 BMatP= 4.79D-05
 IDIUse=1 WtCom= 1.00D+00 WtEn= 0.00D+00
 Coeff-Com:  0.108D+00 0.892D+00
 Coeff:      0.108D+00 0.892D+00
 Gap=     0.104 Goal=   None    Shift=    0.000
 RMSDP=9.91D-06 MaxDP=8.79D-04 DE=-3.46D-05 OVMax= 1.77D-03

 Cycle  11  Pass 1  IDiag  1:
 RMSU=  9.61D-06    CP:  9.99D-01  1.01D+00
 E= -1420.73808268969     Delta-E=        0.000009756786 Rises=F Damp=F
 DIIS: error= 1.74D-04 at cycle   3 NSaved=   3.
 NSaved= 3 IEnMin= 2 EnMin= -1420.73809244648     IErMin= 2 ErrMin= 9.15D-05
 ErrMax= 1.74D-04  0.00D+00 EMaxC= 1.00D-01 BMatC= 1.49D-05 BMatP= 4.29D-06
 IDIUse=3 WtCom= 4.31D-01 WtEn= 5.69D-01
 Coeff-Com: -0.208D-02 0.653D+00 0.349D+00
 Coeff-En:   0.000D+00 0.724D+00 0.276D+00
 Coeff:     -0.897D-03 0.694D+00 0.307D+00
 Gap=     0.103 Goal=   None    Shift=    0.000
 RMSDP=5.73D-06 MaxDP=4.90D-04 DE= 9.76D-06 OVMax= 1.21D-03

 Cycle  12  Pass 1  IDiag  1:
 RMSU=  1.37D-06    CP:  9.99D-01  1.01D+00  4.25D-01
 E= -1420.73809595407     Delta-E=       -0.000013264375 Rises=F Damp=F
 DIIS: error= 2.58D-05 at cycle   4 NSaved=   4.
 NSaved= 4 IEnMin= 4 EnMin= -1420.73809595407     IErMin= 4 ErrMin= 2.58D-05
 ErrMax= 2.58D-05  0.00D+00 EMaxC= 1.00D-01 BMatC= 3.51D-07 BMatP= 4.29D-06
 IDIUse=1 WtCom= 1.00D+00 WtEn= 0.00D+00
 Coeff-Com: -0.316D-02 0.423D+00 0.179D+00 0.401D+00
 Coeff:     -0.316D-02 0.423D+00 0.179D+00 0.401D+00
 Gap=     0.104 Goal=   None    Shift=    0.000
 RMSDP=1.05D-06 MaxDP=9.58D-05 DE=-1.33D-05 OVMax= 1.02D-04

 Cycle  13  Pass 1  IDiag  1:
 RMSU=  4.35D-07    CP:  9.99D-01  1.01D+00  3.55D-01  5.07D-01
 E= -1420.73809624843     Delta-E=       -0.000000294367 Rises=F Damp=F
 DIIS: error= 4.57D-06 at cycle   5 NSaved=   5.
 NSaved= 5 IEnMin= 5 EnMin= -1420.73809624843     IErMin= 5 ErrMin= 4.57D-06
 ErrMax= 4.57D-06  0.00D+00 EMaxC= 1.00D-01 BMatC= 1.42D-08 BMatP= 3.51D-07
 IDIUse=1 WtCom= 1.00D+00 WtEn= 0.00D+00
 Coeff-Com: -0.219D-02 0.271D+00 0.111D+00 0.285D+00 0.335D+00
 Coeff:     -0.219D-02 0.271D+00 0.111D+00 0.285D+00 0.335D+00
 Gap=     0.103 Goal=   None    Shift=    0.000
 RMSDP=2.10D-07 MaxDP=1.47D-05 DE=-2.94D-07 OVMax= 3.82D-05

 Cycle  14  Pass 1  IDiag  1:
 RMSU=  1.47D-07    CP:  9.99D-01  1.01D+00  3.55D-01  5.56D-01  6.94D-01
 E= -1420.73809626188     Delta-E=       -0.000000013442 Rises=F Damp=F
 DIIS: error= 9.86D-07 at cycle   6 NSaved=   6.
 NSaved= 6 IEnMin= 6 EnMin= -1420.73809626188     IErMin= 6 ErrMin= 9.86D-07
 ErrMax= 9.86D-07  0.00D+00 EMaxC= 1.00D-01 BMatC= 4.33D-10 BMatP= 1.42D-08
 IDIUse=1 WtCom= 1.00D+00 WtEn= 0.00D+00
 Coeff-Com: -0.102D-02 0.124D+00 0.500D-01 0.135D+00 0.198D+00 0.494D+00
 Coeff:     -0.102D-02 0.124D+00 0.500D-01 0.135D+00 0.198D+00 0.494D+00
 Gap=     0.103 Goal=   None    Shift=    0.000
 RMSDP=4.23D-08 MaxDP=2.72D-06 DE=-1.34D-08 OVMax= 5.86D-06

 Cycle  15  Pass 1  IDiag  1:
 RMSU=  3.41D-08    CP:  9.99D-01  1.01D+00  3.54D-01  5.48D-01  7.25D-01
                    CP:  8.81D-01
 E= -1420.73809626219     Delta-E=       -0.000000000311 Rises=F Damp=F
 DIIS: error= 1.74D-07 at cycle   7 NSaved=   7.
 NSaved= 7 IEnMin= 7 EnMin= -1420.73809626219     IErMin= 7 ErrMin= 1.74D-07
 ErrMax= 1.74D-07  0.00D+00 EMaxC= 1.00D-01 BMatC= 3.54D-11 BMatP= 4.33D-10
 IDIUse=1 WtCom= 1.00D+00 WtEn= 0.00D+00
 Coeff-Com: -0.131D-03 0.151D-01 0.546D-02 0.197D-01 0.376D-01 0.248D+00
 Coeff-Com:  0.674D+00
 Coeff:     -0.131D-03 0.151D-01 0.546D-02 0.197D-01 0.376D-01 0.248D+00
 Coeff:      0.674D+00
 Gap=     0.103 Goal=   None    Shift=    0.000
 RMSDP=1.50D-08 MaxDP=1.02D-06 DE=-3.11D-10 OVMax= 1.86D-06

 Cycle  16  Pass 1  IDiag  1:
 RMSU=  9.05D-09    CP:  9.99D-01  1.01D+00  3.54D-01  5.52D-01  7.28D-01
                    CP:  9.12D-01  7.52D-01
 E= -1420.73809626224     Delta-E=       -0.000000000058 Rises=F Damp=F
 DIIS: error= 8.67D-08 at cycle   8 NSaved=   8.
 NSaved= 8 IEnMin= 8 EnMin= -1420.73809626224     IErMin= 8 ErrMin= 8.67D-08
 ErrMax= 8.67D-08  0.00D+00 EMaxC= 1.00D-01 BMatC= 8.37D-12 BMatP= 3.54D-11
 IDIUse=1 WtCom= 1.00D+00 WtEn= 0.00D+00
 Coeff-Com:  0.115D-04-0.189D-02-0.121D-02 0.205D-03 0.481D-02 0.113D+00
 Coeff-Com:  0.430D+00 0.455D+00
 Coeff:      0.115D-04-0.189D-02-0.121D-02 0.205D-03 0.481D-02 0.113D+00
 Coeff:      0.430D+00 0.455D+00
 Gap=     0.103 Goal=   None    Shift=    0.000
 RMSDP=4.79D-09 MaxDP=3.25D-07 DE=-5.82D-11 OVMax= 7.08D-07

 SCF Done:  E(RB3LYP) =  -1420.73809626     A.U. after   16 cycles
            NFock= 16  Conv=0.48D-08     -V/T= 2.0070
 KE= 1.410825181288D+03 PE=-9.862265731414D+03 EE= 3.737643961257D+03
 Leave Link  502 at Thu Jun 10 22:35:36 2021, MaxMem=   134217728 cpu:            1474.3 elap:              92.5
 (Enter /APL/ISV/x86_64/gaussian/16/C.01/g16/l601.exe)
 Copying SCF densities to generalized density rwf, IOpCl= 0 IROHF=0.

 **********************************************************************

            Population analysis using the SCF Density.

 **********************************************************************

 Orbital symmetries:
       Occupied  (A) (A) (A) (A) (A) (A) (A) (A) (A) (A) (A) (A)
                 (A) (A) (A) (A) (A) (A) (A) (A) (A) (A) (A) (A)
                 (A) (A) (A) (A) (A) (A) (A) (A) (A) (A) (A) (A)
                 (A) (A) (A) (A) (A) (A) (A) (A) (A) (A) (A) (A)
                 (A) (A) (A) (A) (A) (A) (A) (A) (A) (A) (A) (A)
                 (A) (A) (A) (A) (A) (A) (A) (A) (A) (A) (A) (A)
                 (A) (A) (A) (A) (A) (A) (A) (A) (A) (A) (A) (A)
                 (A) (A) (A) (A) (A) (A) (A) (A) (A) (A) (A) (A)
                 (A) (A) (A) (A) (A) (A) (A) (A) (A) (A) (A) (A)
                 (A) (A) (A) (A) (A) (A) (A) (A) (A) (A)
       Virtual   (A) (A) (A) (A) (A) (A) (A) (A) (A) (A) (A) (A)
                 (A) (A) (A) (A) (A) (A) (A) (A) (A) (A) (A) (A)
                 (A) (A) (A) (A) (A) (A) (A) (A) (A) (A) (A) (A)
                 (A) (A) (A) (A) (A) (A) (A) (A) (A) (A) (A) (A)
                 (A) (A) (A) (A) (A) (A) (A) (A) (A) (A) (A) (A)
                 (A) (A) (A) (A) (A) (A) (A) (A) (A) (A) (A) (A)
                 (A) (A) (A) (A) (A) (A) (A) (A) (A) (A) (A) (A)
                 (A) (A) (A) (A) (A) (A) (A) (A) (A) (A) (A) (A)
                 (A) (A) (A) (A) (A) (A) (A) (A) (A) (A) (A) (A)
                 (A) (A) (A) (A) (A) (A) (A) (A) (A) (A) (A) (A)
                 (A) (A) (A) (A) (A) (A) (A) (A) (A) (A) (A) (A)
                 (A) (A) (A) (A) (A) (A) (A) (A) (A) (A) (A) (A)
                 (A) (A) (A) (A) (A) (A) (A) (A) (A) (A) (A) (A)
                 (A) (A) (A) (A) (A) (A) (A) (A) (A) (A) (A) (A)
                 (A) (A) (A) (A) (A) (A) (A) (A) (A) (A) (A) (A)
                 (A) (A) (A) (A) (A) (A) (A) (A) (A) (A) (A) (A)
                 (A) (A) (A) (A) (A) (A) (A) (A) (A) (A) (A) (A)
                 (A) (A) (A) (A) (A) (A) (A) (A) (A) (A) (A) (A)
                 (A) (A) (A) (A) (A) (A) (A) (A) (A) (A) (A) (A)
                 (A) (A) (A) (A) (A) (A) (A) (A) (A) (A) (A) (A)
                 (A) (A) (A) (A) (A) (A) (A) (A) (A) (A) (A) (A)
                 (A) (A) (A) (A) (A) (A) (A) (A) (A) (A) (A) (A)
                 (A) (A) (A) (A) (A) (A) (A) (A) (A) (A) (A) (A)
                 (A) (A) (A) (A) (A) (A) (A) (A) (A) (A) (A) (A)
                 (A) (A) (A) (A) (A) (A) (A) (A) (A) (A) (A) (A)
                 (A) (A) (A) (A) (A) (A) (A) (A) (A) (A) (A) (A)
                 (A) (A) (A) (A) (A) (A) (A) (A) (A) (A) (A) (A)
                 (A) (A) (A) (A) (A) (A) (A) (A) (A) (A) (A) (A)
                 (A) (A) (A) (A) (A) (A) (A) (A) (A) (A) (A) (A)
                 (A) (A) (A) (A) (A) (A) (A) (A) (A) (A) (A) (A)
                 (A) (A) (A) (A) (A) (A) (A) (A) (A) (A) (A) (A)
                 (A) (A) (A) (A) (A) (A) (A) (A) (A) (A) (A) (A)
                 (A) (A) (A) (A) (A) (A) (A) (A) (A) (A) (A) (A)
                 (A) (A) (A) (A) (A) (A) (A) (A) (A) (A) (A) (A)
                 (A) (A) (A) (A) (A) (A) (A) (A) (A) (A) (A) (A)
                 (A) (A) (A) (A) (A) (A) (A) (A) (A) (A) (A) (A)
                 (A) (A) (A) (A) (A) (A) (A) (A) (A) (A) (A) (A)
                 (A) (A) (A) (A) (A) (A) (A) (A) (A) (A) (A) (A)
                 (A) (A) (A) (A) (A) (A) (A) (A) (A) (A) (A) (A)
                 (A) (A) (A) (A) (A) (A) (A) (A) (A) (A) (A) (A)
                 (A) (A) (A) (A) (A) (A) (A) (A) (A) (A) (A) (A)
                 (A) (A) (A) (A) (A) (A) (A)
 The electronic state is 1-A.
 Alpha  occ. eigenvalues --  -19.32715 -19.27796 -19.21748 -14.47566 -14.47437
 Alpha  occ. eigenvalues --  -10.40942 -10.38142 -10.38024 -10.36275 -10.35968
 Alpha  occ. eigenvalues --  -10.34924 -10.32837 -10.32777 -10.32766 -10.32452
 Alpha  occ. eigenvalues --  -10.31909 -10.31688 -10.31630 -10.31317 -10.31217
 Alpha  occ. eigenvalues --  -10.30934 -10.30416 -10.30219 -10.29950 -10.29895
 Alpha  occ. eigenvalues --  -10.29839 -10.29719 -10.29265 -10.29122 -10.28256
 Alpha  occ. eigenvalues --  -10.27995 -10.27884 -10.27821  -1.23033  -1.19615
 Alpha  occ. eigenvalues --   -1.10455  -1.07376  -1.07062  -0.99193  -0.97760
 Alpha  occ. eigenvalues --   -0.96168  -0.92264  -0.89597  -0.87976  -0.87748
 Alpha  occ. eigenvalues --   -0.87110  -0.86843  -0.86173  -0.85062  -0.84073
 Alpha  occ. eigenvalues --   -0.82189  -0.77958  -0.77268  -0.76116  -0.75081
 Alpha  occ. eigenvalues --   -0.74666  -0.73760  -0.72342  -0.71198  -0.70123
 Alpha  occ. eigenvalues --   -0.69491  -0.68233  -0.65598  -0.65179  -0.63920
 Alpha  occ. eigenvalues --   -0.62020  -0.61707  -0.61341  -0.60328  -0.59312
 Alpha  occ. eigenvalues --   -0.58864  -0.58237  -0.57571  -0.57139  -0.56900
 Alpha  occ. eigenvalues --   -0.55909  -0.55655  -0.55475  -0.54983  -0.54234
 Alpha  occ. eigenvalues --   -0.53950  -0.53658  -0.53451  -0.53143  -0.52575
 Alpha  occ. eigenvalues --   -0.52265  -0.52120  -0.51419  -0.50003  -0.49841
 Alpha  occ. eigenvalues --   -0.49580  -0.48938  -0.48713  -0.48240  -0.48002
 Alpha  occ. eigenvalues --   -0.47865  -0.47532  -0.47413  -0.46896  -0.46585
 Alpha  occ. eigenvalues --   -0.46313  -0.45968  -0.45280  -0.45105  -0.44948
 Alpha  occ. eigenvalues --   -0.44703  -0.44339  -0.43579  -0.42874  -0.41061
 Alpha  occ. eigenvalues --   -0.40531  -0.38177  -0.36682  -0.36030  -0.35752
 Alpha  occ. eigenvalues --   -0.35623  -0.33237  -0.30424
 Alpha virt. eigenvalues --   -0.20074  -0.14678  -0.12714  -0.11347  -0.11041
 Alpha virt. eigenvalues --   -0.10952  -0.05715  -0.04668  -0.04500  -0.03805
 Alpha virt. eigenvalues --   -0.02901  -0.02134  -0.01952  -0.01716  -0.01451
 Alpha virt. eigenvalues --   -0.01391  -0.00252   0.00079   0.00283   0.01233
 Alpha virt. eigenvalues --    0.01837   0.02014   0.02434   0.02914   0.03255
 Alpha virt. eigenvalues --    0.03454   0.03487   0.03850   0.04130   0.04518
 Alpha virt. eigenvalues --    0.04754   0.05023   0.05199   0.05648   0.05901
 Alpha virt. eigenvalues --    0.06138   0.06684   0.06810   0.07027   0.07198
 Alpha virt. eigenvalues --    0.07817   0.07987   0.08263   0.09109   0.09425
 Alpha virt. eigenvalues --    0.09782   0.10177   0.10645   0.12846   0.12963
 Alpha virt. eigenvalues --    0.13456   0.13872   0.14601   0.15119   0.15433
 Alpha virt. eigenvalues --    0.15472   0.15891   0.16945   0.19026   0.19504
 Alpha virt. eigenvalues --    0.20164   0.20755   0.21402   0.22419   0.22502
 Alpha virt. eigenvalues --    0.22830   0.25212   0.25925   0.26509   0.27401
 Alpha virt. eigenvalues --    0.27656   0.28393   0.28962   0.29248   0.29941
 Alpha virt. eigenvalues --    0.30800   0.31218   0.32152   0.32411   0.32610
 Alpha virt. eigenvalues --    0.33218   0.33360   0.34079   0.34265   0.34359
 Alpha virt. eigenvalues --    0.34525   0.35460   0.35701   0.35889   0.36599
 Alpha virt. eigenvalues --    0.36953   0.37364   0.37430   0.38028   0.38442
 Alpha virt. eigenvalues --    0.38668   0.38868   0.39439   0.39466   0.40023
 Alpha virt. eigenvalues --    0.40165   0.40453   0.40856   0.40907   0.41209
 Alpha virt. eigenvalues --    0.41677   0.41933   0.42580   0.42972   0.43142
 Alpha virt. eigenvalues --    0.44066   0.44367   0.45006   0.45381   0.46230
 Alpha virt. eigenvalues --    0.47127   0.47533   0.47686   0.47953   0.48202
 Alpha virt. eigenvalues --    0.48620   0.49314   0.49695   0.50481   0.50643
 Alpha virt. eigenvalues --    0.51281   0.51341   0.51798   0.51963   0.52796
 Alpha virt. eigenvalues --    0.53020   0.53490   0.53960   0.54357   0.54445
 Alpha virt. eigenvalues --    0.54712   0.55113   0.55304   0.55465   0.55659
 Alpha virt. eigenvalues --    0.55691   0.56038   0.56124   0.56510   0.56679
 Alpha virt. eigenvalues --    0.56813   0.57208   0.57573   0.58080   0.58591
 Alpha virt. eigenvalues --    0.58794   0.59043   0.59902   0.60288   0.61030
 Alpha virt. eigenvalues --    0.61270   0.61460   0.61601   0.62042   0.62243
 Alpha virt. eigenvalues --    0.62455   0.62986   0.63399   0.64011   0.64242
 Alpha virt. eigenvalues --    0.64425   0.64777   0.65557   0.66397   0.68208
 Alpha virt. eigenvalues --    0.68883   0.69480   0.70067   0.70961   0.71727
 Alpha virt. eigenvalues --    0.72311   0.73541   0.74086   0.74284   0.75021
 Alpha virt. eigenvalues --    0.76639   0.77108   0.77191   0.77496   0.77830
 Alpha virt. eigenvalues --    0.78250   0.78410   0.79662   0.80579   0.80783
 Alpha virt. eigenvalues --    0.81132   0.81554   0.82144   0.82593   0.83519
 Alpha virt. eigenvalues --    0.84142   0.84848   0.85746   0.86945   0.87001
 Alpha virt. eigenvalues --    0.87167   0.87621   0.88081   0.88818   0.89196
 Alpha virt. eigenvalues --    0.89842   0.90256   0.90653   0.90864   0.92199
 Alpha virt. eigenvalues --    0.92581   0.93709   0.93976   0.94423   0.94927
 Alpha virt. eigenvalues --    0.95388   0.95789   0.95873   0.96219   0.98380
 Alpha virt. eigenvalues --    0.98865   0.99487   0.99661   1.00238   1.01523
 Alpha virt. eigenvalues --    1.02317   1.03182   1.03393   1.05482   1.05776
 Alpha virt. eigenvalues --    1.06716   1.07492   1.08161   1.08390   1.08725
 Alpha virt. eigenvalues --    1.09048   1.09894   1.10900   1.12004   1.12068
 Alpha virt. eigenvalues --    1.12593   1.13609   1.14004   1.15107   1.15219
 Alpha virt. eigenvalues --    1.16041   1.17345   1.20250   1.20923   1.22434
 Alpha virt. eigenvalues --    1.23190   1.24656   1.26082   1.26396   1.26455
 Alpha virt. eigenvalues --    1.27223   1.28497   1.28788   1.29017   1.30954
 Alpha virt. eigenvalues --    1.31074   1.31912   1.31971   1.32525   1.33006
 Alpha virt. eigenvalues --    1.33306   1.33564   1.33656   1.34043   1.35098
 Alpha virt. eigenvalues --    1.35864   1.36926   1.37018   1.37390   1.37663
 Alpha virt. eigenvalues --    1.37791   1.38285   1.39200   1.39617   1.39893
 Alpha virt. eigenvalues --    1.40205   1.40816   1.41450   1.42922   1.44410
 Alpha virt. eigenvalues --    1.45229   1.45714   1.46795   1.46911   1.47203
 Alpha virt. eigenvalues --    1.47357   1.47781   1.48394   1.49107   1.49351
 Alpha virt. eigenvalues --    1.49802   1.49971   1.50236   1.50661   1.51156
 Alpha virt. eigenvalues --    1.51670   1.51905   1.52322   1.52643   1.52999
 Alpha virt. eigenvalues --    1.53074   1.53856   1.54111   1.54540   1.54669
 Alpha virt. eigenvalues --    1.54989   1.55125   1.55391   1.55763   1.56276
 Alpha virt. eigenvalues --    1.56461   1.56830   1.56943   1.57440   1.58056
 Alpha virt. eigenvalues --    1.58348   1.58544   1.58702   1.59179   1.59483
 Alpha virt. eigenvalues --    1.59916   1.60341   1.60594   1.61040   1.61213
 Alpha virt. eigenvalues --    1.62351   1.62617   1.62718   1.62976   1.63355
 Alpha virt. eigenvalues --    1.63987   1.64287   1.64495   1.65151   1.65366
 Alpha virt. eigenvalues --    1.65602   1.66113   1.66459   1.66921   1.67496
 Alpha virt. eigenvalues --    1.67631   1.67980   1.68525   1.68637   1.69452
 Alpha virt. eigenvalues --    1.70382   1.70692   1.71820   1.72192   1.72598
 Alpha virt. eigenvalues --    1.72766   1.74006   1.74625   1.74894   1.75546
 Alpha virt. eigenvalues --    1.76727   1.76839   1.77102   1.77805   1.78594
 Alpha virt. eigenvalues --    1.79562   1.79868   1.80333   1.81427   1.82279
 Alpha virt. eigenvalues --    1.83447   1.84502   1.84990   1.85581   1.85723
 Alpha virt. eigenvalues --    1.86304   1.87272   1.87718   1.88431   1.89071
 Alpha virt. eigenvalues --    1.89347   1.90659   1.90755   1.91510   1.92531
 Alpha virt. eigenvalues --    1.93062   1.93653   1.94521   1.95129   1.95453
 Alpha virt. eigenvalues --    1.96417   1.97736   1.98351   1.98626   1.98760
 Alpha virt. eigenvalues --    1.99397   2.00092   2.00876   2.01113   2.01653
 Alpha virt. eigenvalues --    2.03068   2.03887   2.04538   2.05786   2.06628
 Alpha virt. eigenvalues --    2.07768   2.08052   2.08823   2.10172   2.10915
 Alpha virt. eigenvalues --    2.11714   2.12224   2.12729   2.13168   2.13653
 Alpha virt. eigenvalues --    2.13665   2.14422   2.15031   2.15742   2.16356
 Alpha virt. eigenvalues --    2.17579   2.18417   2.19102   2.20050   2.21573
 Alpha virt. eigenvalues --    2.22991   2.23522   2.23839   2.24461   2.25092
 Alpha virt. eigenvalues --    2.25680   2.26525   2.29306   2.31810   2.32246
 Alpha virt. eigenvalues --    2.32468   2.32624   2.33180   2.33449   2.34119
 Alpha virt. eigenvalues --    2.34762   2.35782   2.36642   2.37643   2.39581
 Alpha virt. eigenvalues --    2.40028   2.41011   2.42504   2.42934   2.43257
 Alpha virt. eigenvalues --    2.43292   2.43982   2.45214   2.46061   2.46998
 Alpha virt. eigenvalues --    2.47727   2.48644   2.49862   2.50683   2.52147
 Alpha virt. eigenvalues --    2.52522   2.53083   2.53996   2.56594   2.57945
 Alpha virt. eigenvalues --    2.58437   2.59951   2.60096   2.62012   2.63066
 Alpha virt. eigenvalues --    2.64616   2.66623   2.66913   2.67411   2.68109
 Alpha virt. eigenvalues --    2.70783   2.71297   2.71549   2.73868   2.75567
 Alpha virt. eigenvalues --    2.78636   2.80348   2.81321   2.82084   2.86427
 Alpha virt. eigenvalues --    2.94971   2.96316   3.02681   3.04865   3.04929
 Alpha virt. eigenvalues --    3.13785   3.17666   3.29697   3.32077   3.39836
 Alpha virt. eigenvalues --    3.47429   3.52793   3.54520   3.65481
          Condensed to atoms (all electrons):
 Mulliken charges:
               1
     1  C    0.224578
     2  C   -0.025334
     3  C    0.108871
     4  C    0.005829
     5  C    0.001119
     6  C    0.015886
     7  C    0.222523
     8  C    0.003861
     9  C    0.112998
    10  C   -0.025668
    11  H   -0.011085
    12  C    0.203621
    13  C    0.027186
    14  C    0.010057
    15  H   -0.011884
    16  H   -0.004389
    17  H   -0.008816
    18  H   -0.003644
    19  H   -0.004196
    20  C   -0.083647
    21  C   -0.047923
    22  C    0.048183
    23  C    0.078792
    24  C    0.058250
    25  H   -0.027443
    26  C    0.056663
    27  H   -0.000703
    28  H    0.000330
    29  H    0.001462
    30  O   -0.209622
    31  N   -0.294397
    32  N   -0.261852
    33  C    0.155547
    34  O   -0.208187
    35  O   -0.174298
    36  H    0.159836
    37  C    0.037688
    38  H    0.034895
    39  H    0.041510
    40  C   -0.015106
    41  H    0.034302
    42  H    0.037773
    43  H    0.046652
    44  C    0.041777
    45  H    0.040293
    46  H    0.033820
    47  C   -0.014698
    48  H    0.045361
    49  H    0.033211
    50  H    0.038421
    51  C    0.048866
[...]
                 (A) (A) (A) (A) (A) (A) (A) (A) (A) (A) (A) (A)
                 (A) (A) (A) (A) (A) (A) (A) (A) (A) (A) (A) (A)
                 (A) (A) (A) (A) (A) (A) (A) (A) (A) (A) (A) (A)
                 (A) (A) (A) (A) (A) (A) (A) (A) (A) (A) (A) (A)
                 (A) (A) (A) (A) (A) (A) (A) (A) (A) (A) (A) (A)
                 (A) (A) (A) (A) (A) (A) (A) (A) (A) (A) (A) (A)
                 (A) (A) (A) (A) (A) (A) (A) (A) (A) (A) (A) (A)
                 (A) (A) (A) (A) (A) (A) (A) (A) (A) (A) (A) (A)
                 (A) (A) (A) (A) (A) (A) (A) (A) (A) (A) (A) (A)
                 (A) (A) (A) (A) (A) (A) (A) (A) (A) (A) (A) (A)
                 (A) (A) (A) (A) (A) (A) (A) (A) (A) (A) (A) (A)
                 (A) (A) (A) (A) (A) (A) (A) (A) (A) (A) (A) (A)
                 (A) (A) (A) (A) (A) (A) (A) (A) (A) (A) (A) (A)
                 (A) (A) (A) (A) (A) (A) (A) (A) (A) (A) (A) (A)
                 (A) (A) (A) (A) (A) (A) (A) (A) (A) (A) (A) (A)
                 (A) (A) (A) (A) (A) (A) (A) (A) (A) (A) (A) (A)
                 (A) (A) (A) (A) (A) (A) (A) (A) (A) (A) (A) (A)
                 (A) (A) (A) (A) (A) (A) (A) (A) (A) (A) (A) (A)
                 (A) (A) (A) (A) (A) (A) (A) (A) (A) (A) (A) (A)
                 (A) (A) (A) (A) (A) (A) (A) (A) (A) (A) (A) (A)
                 (A) (A) (A) (A) (A) (A) (A) (A) (A) (A) (A) (A)
                 (A) (A) (A) (A) (A) (A) (A) (A) (A) (A) (A) (A)
                 (A) (A) (A) (A) (A) (A) (A) (A) (A) (A) (A) (A)
                 (A) (A) (A) (A) (A) (A) (A) (A) (A) (A) (A) (A)
                 (A) (A) (A) (A) (A) (A) (A) (A) (A) (A) (A) (A)
                 (A) (A) (A) (A) (A) (A) (A) (A) (A) (A) (A) (A)
                 (A) (A) (A) (A) (A) (A) (A) (A) (A) (A) (A) (A)
                 (A) (A) (A) (A) (A) (A) (A) (A) (A) (A) (A) (A)
                 (A) (A) (A) (A) (A) (A) (A) (A) (A) (A) (A) (A)
                 (A) (A) (A) (A) (A) (A) (A) (A) (A) (A) (A) (A)
                 (A) (A) (A) (A) (A) (A) (A) (A) (A) (A) (A) (A)
                 (A) (A) (A) (A) (A) (A) (A) (A) (A) (A) (A) (A)
                 (A) (A) (A) (A) (A) (A) (A) (A) (A) (A) (A) (A)
                 (A) (A) (A) (A) (A) (A) (A) (A) (A) (A) (A) (A)
                 (A) (A) (A) (A) (A) (A) (A) (A) (A) (A) (A) (A)
                 (A) (A) (A) (A) (A) (A) (A) (A) (A) (A) (A) (A)
                 (A) (A) (A) (A) (A) (A) (A) (A) (A) (A) (A) (A)
                 (A) (A) (A) (A) (A) (A) (A)
 The electronic state is 1-A.
 Alpha  occ. eigenvalues --  -19.32720 -19.27819 -19.21757 -14.47593 -14.47420
 Alpha  occ. eigenvalues --  -10.40938 -10.38148 -10.38022 -10.36296 -10.36013
 Alpha  occ. eigenvalues --  -10.34940 -10.32807 -10.32802 -10.32792 -10.32408
 Alpha  occ. eigenvalues --  -10.31908 -10.31698 -10.31637 -10.31327 -10.31224
 Alpha  occ. eigenvalues --  -10.30921 -10.30428 -10.30242 -10.29961 -10.29902
 Alpha  occ. eigenvalues --  -10.29839 -10.29731 -10.29273 -10.29132 -10.28234
 Alpha  occ. eigenvalues --  -10.28019 -10.27911 -10.27840  -1.23043  -1.19683
 Alpha  occ. eigenvalues --   -1.10495  -1.07388  -1.07000  -0.99201  -0.97774
 Alpha  occ. eigenvalues --   -0.96178  -0.92277  -0.89600  -0.87981  -0.87722
 Alpha  occ. eigenvalues --   -0.87081  -0.86854  -0.86171  -0.85066  -0.84059
 Alpha  occ. eigenvalues --   -0.82179  -0.77955  -0.77263  -0.76123  -0.75079
 Alpha  occ. eigenvalues --   -0.74663  -0.73755  -0.72347  -0.71187  -0.70118
 Alpha  occ. eigenvalues --   -0.69499  -0.68237  -0.65561  -0.65186  -0.63921
 Alpha  occ. eigenvalues --   -0.62017  -0.61711  -0.61340  -0.60353  -0.59351
 Alpha  occ. eigenvalues --   -0.58882  -0.58256  -0.57577  -0.57085  -0.56870
 Alpha  occ. eigenvalues --   -0.55924  -0.55654  -0.55486  -0.54966  -0.54232
 Alpha  occ. eigenvalues --   -0.53980  -0.53667  -0.53465  -0.53131  -0.52581
 Alpha  occ. eigenvalues --   -0.52269  -0.52110  -0.51406  -0.50006  -0.49827
 Alpha  occ. eigenvalues --   -0.49615  -0.48957  -0.48735  -0.48178  -0.47992
 Alpha  occ. eigenvalues --   -0.47823  -0.47531  -0.47419  -0.46899  -0.46590
 Alpha  occ. eigenvalues --   -0.46258  -0.45976  -0.45316  -0.45089  -0.44863
 Alpha  occ. eigenvalues --   -0.44722  -0.44321  -0.43577  -0.42888  -0.41090
 Alpha  occ. eigenvalues --   -0.40553  -0.38186  -0.36702  -0.36043  -0.35755
 Alpha  occ. eigenvalues --   -0.35629  -0.33250  -0.30437
 Alpha virt. eigenvalues --   -0.20086  -0.14675  -0.12727  -0.11361  -0.11048
 Alpha virt. eigenvalues --   -0.10957  -0.05738  -0.04694  -0.04525  -0.03799
 Alpha virt. eigenvalues --   -0.02908  -0.02147  -0.01940  -0.01704  -0.01458
 Alpha virt. eigenvalues --   -0.01357  -0.00290   0.00049   0.00317   0.01234
 Alpha virt. eigenvalues --    0.01833   0.02012   0.02564   0.02882   0.03229
 Alpha virt. eigenvalues --    0.03436   0.03552   0.03877   0.04115   0.04513
 Alpha virt. eigenvalues --    0.04780   0.05003   0.05289   0.05718   0.05930
 Alpha virt. eigenvalues --    0.06139   0.06636   0.06763   0.06930   0.07024
 Alpha virt. eigenvalues --    0.07724   0.07832   0.08196   0.09029   0.09421
 Alpha virt. eigenvalues --    0.09765   0.09988   0.10629   0.12757   0.12832
 Alpha virt. eigenvalues --    0.13418   0.13860   0.14584   0.15106   0.15382
 Alpha virt. eigenvalues --    0.15458   0.15883   0.16928   0.19043   0.19498
 Alpha virt. eigenvalues --    0.20092   0.20748   0.21350   0.22371   0.22491
 Alpha virt. eigenvalues --    0.22838   0.25190   0.25923   0.26523   0.27405
 Alpha virt. eigenvalues --    0.27649   0.28359   0.28784   0.29351   0.29895
 Alpha virt. eigenvalues --    0.30824   0.31231   0.32134   0.32410   0.32589
 Alpha virt. eigenvalues --    0.33207   0.33344   0.34033   0.34249   0.34294
 Alpha virt. eigenvalues --    0.34610   0.35560   0.35774   0.35909   0.36729
 Alpha virt. eigenvalues --    0.36914   0.37220   0.37393   0.37940   0.38434
 Alpha virt. eigenvalues --    0.38709   0.38844   0.39310   0.39607   0.40040
 Alpha virt. eigenvalues --    0.40310   0.40450   0.40834   0.40903   0.41216
 Alpha virt. eigenvalues --    0.41726   0.41927   0.42578   0.42949   0.43305
 Alpha virt. eigenvalues --    0.44114   0.44358   0.45040   0.45351   0.46218
 Alpha virt. eigenvalues --    0.47048   0.47529   0.47740   0.48003   0.48213
 Alpha virt. eigenvalues --    0.48654   0.49291   0.49724   0.50420   0.50585
 Alpha virt. eigenvalues --    0.51143   0.51309   0.51729   0.51937   0.52750
 Alpha virt. eigenvalues --    0.52872   0.53495   0.53864   0.54242   0.54365
 Alpha virt. eigenvalues --    0.54584   0.55049   0.55246   0.55438   0.55595
 Alpha virt. eigenvalues --    0.55737   0.56037   0.56100   0.56462   0.56752
 Alpha virt. eigenvalues --    0.56803   0.57081   0.57576   0.57955   0.58597
 Alpha virt. eigenvalues --    0.58811   0.59028   0.59862   0.60233   0.60918
 Alpha virt. eigenvalues --    0.61221   0.61257   0.61564   0.61908   0.62106
 Alpha virt. eigenvalues --    0.62505   0.62943   0.63404   0.63867   0.64260
 Alpha virt. eigenvalues --    0.64410   0.64832   0.65556   0.66384   0.68033
 Alpha virt. eigenvalues --    0.68861   0.69318   0.69809   0.71058   0.71656
 Alpha virt. eigenvalues --    0.72513   0.73206   0.73658   0.74276   0.75044
 Alpha virt. eigenvalues --    0.76644   0.77065   0.77262   0.77419   0.77847
 Alpha virt. eigenvalues --    0.78147   0.78421   0.79708   0.80637   0.80945
 Alpha virt. eigenvalues --    0.81298   0.81564   0.82005   0.82675   0.83469
 Alpha virt. eigenvalues --    0.84142   0.84830   0.85762   0.86881   0.87029
 Alpha virt. eigenvalues --    0.87123   0.87727   0.88045   0.88738   0.89166
 Alpha virt. eigenvalues --    0.89830   0.90210   0.90662   0.90876   0.92149
 Alpha virt. eigenvalues --    0.92534   0.93761   0.93946   0.94305   0.94866
 Alpha virt. eigenvalues --    0.95353   0.95781   0.95843   0.96099   0.98392
 Alpha virt. eigenvalues --    0.98747   0.99458   0.99739   1.00280   1.01551
 Alpha virt. eigenvalues --    1.02324   1.03188   1.03452   1.05184   1.05703
 Alpha virt. eigenvalues --    1.06611   1.07135   1.07952   1.08143   1.08380
 Alpha virt. eigenvalues --    1.09059   1.09827   1.11481   1.12099   1.12458
 Alpha virt. eigenvalues --    1.12826   1.13764   1.13964   1.15046   1.15473
 Alpha virt. eigenvalues --    1.16016   1.17320   1.20087   1.20924   1.22212
 Alpha virt. eigenvalues --    1.22997   1.24474   1.26103   1.26302   1.26353
 Alpha virt. eigenvalues --    1.27356   1.28374   1.29037   1.29150   1.30463
 Alpha virt. eigenvalues --    1.30976   1.31791   1.31932   1.32592   1.33008
 Alpha virt. eigenvalues --    1.33299   1.33628   1.33801   1.34070   1.35189
 Alpha virt. eigenvalues --    1.35939   1.36810   1.37071   1.37342   1.37605
 Alpha virt. eigenvalues --    1.37765   1.38344   1.39296   1.39685   1.39885
 Alpha virt. eigenvalues --    1.40283   1.40817   1.41486   1.42900   1.44116
 Alpha virt. eigenvalues --    1.45227   1.45543   1.46617   1.46953   1.47252
 Alpha virt. eigenvalues --    1.47431   1.47807   1.48405   1.49167   1.49354
 Alpha virt. eigenvalues --    1.49747   1.50063   1.50323   1.50517   1.51239
 Alpha virt. eigenvalues --    1.51547   1.51795   1.52164   1.52607   1.52875
 Alpha virt. eigenvalues --    1.53110   1.53847   1.53990   1.54469   1.54718
 Alpha virt. eigenvalues --    1.54930   1.55214   1.55424   1.55720   1.56147
 Alpha virt. eigenvalues --    1.56503   1.56895   1.57098   1.57500   1.58068
 Alpha virt. eigenvalues --    1.58258   1.58536   1.58720   1.59183   1.59517
 Alpha virt. eigenvalues --    1.59900   1.60381   1.60637   1.61085   1.61292
 Alpha virt. eigenvalues --    1.62150   1.62422   1.62656   1.63132   1.63201
 Alpha virt. eigenvalues --    1.63968   1.64267   1.64480   1.64979   1.65237
 Alpha virt. eigenvalues --    1.65516   1.66134   1.66452   1.66962   1.67517
 Alpha virt. eigenvalues --    1.67525   1.67751   1.68521   1.68711   1.69565
 Alpha virt. eigenvalues --    1.70451   1.70970   1.71818   1.72260   1.72486
 Alpha virt. eigenvalues --    1.72722   1.73935   1.74408   1.74887   1.75510
 Alpha virt. eigenvalues --    1.76614   1.76805   1.76966   1.77757   1.78509
 Alpha virt. eigenvalues --    1.79523   1.80025   1.80330   1.81849   1.82625
 Alpha virt. eigenvalues --    1.83415   1.84466   1.84739   1.85524   1.85552
 Alpha virt. eigenvalues --    1.86372   1.87206   1.87830   1.88532   1.89027
 Alpha virt. eigenvalues --    1.89239   1.90492   1.90690   1.91294   1.92607
 Alpha virt. eigenvalues --    1.93029   1.93595   1.94322   1.95144   1.95400
 Alpha virt. eigenvalues --    1.96226   1.97662   1.98197   1.98462   1.98807
 Alpha virt. eigenvalues --    1.99337   1.99994   2.00559   2.00887   2.01813
 Alpha virt. eigenvalues --    2.02990   2.03851   2.04520   2.05788   2.06657
 Alpha virt. eigenvalues --    2.07784   2.07928   2.08491   2.09923   2.11113
 Alpha virt. eigenvalues --    2.11552   2.12169   2.12509   2.12813   2.13364
 Alpha virt. eigenvalues --    2.13666   2.14492   2.15143   2.15710   2.16213
 Alpha virt. eigenvalues --    2.17508   2.18214   2.18890   2.19988   2.21621
 Alpha virt. eigenvalues --    2.22954   2.23530   2.23876   2.24789   2.25227
 Alpha virt. eigenvalues --    2.25706   2.27185   2.29322   2.31774   2.31994
 Alpha virt. eigenvalues --    2.32331   2.32463   2.33112   2.33368   2.34040
 Alpha virt. eigenvalues --    2.34580   2.35769   2.36281   2.37597   2.39242
 Alpha virt. eigenvalues --    2.39956   2.40696   2.42363   2.42736   2.42985
 Alpha virt. eigenvalues --    2.43128   2.43886   2.44807   2.46392   2.46872
 Alpha virt. eigenvalues --    2.47616   2.48548   2.49835   2.50689   2.52110
 Alpha virt. eigenvalues --    2.52537   2.53052   2.54079   2.56466   2.57839
 Alpha virt. eigenvalues --    2.58371   2.59965   2.60127   2.62676   2.63049
 Alpha virt. eigenvalues --    2.64601   2.66677   2.66872   2.67404   2.68122
 Alpha virt. eigenvalues --    2.70818   2.71357   2.71585   2.73852   2.75546
 Alpha virt. eigenvalues --    2.78575   2.80227   2.81289   2.82149   2.86428
 Alpha virt. eigenvalues --    2.94648   2.96351   3.02681   3.04987   3.05006
 Alpha virt. eigenvalues --    3.14010   3.17612   3.29629   3.32105   3.39917
 Alpha virt. eigenvalues --    3.47436   3.52789   3.54465   3.65528
          Condensed to atoms (all electrons):
 Mulliken charges:
               1
     1  C    0.223123
     2  C   -0.024198
     3  C    0.108708
     4  C    0.006503
     5  C    0.002238
     6  C    0.016237
     7  C    0.221093
     8  C    0.004037
     9  C    0.112686
    10  C   -0.025665
    11  H   -0.011134
    12  C    0.204365
    13  C    0.027199
    14  C    0.010099
    15  H   -0.012625
    16  H   -0.004300
    17  H   -0.008856
    18  H   -0.003660
    19  H   -0.004307
    20  C   -0.082556
    21  C   -0.047526
    22  C    0.047647
    23  C    0.078687
    24  C    0.058230
    25  H   -0.027505
    26  C    0.056654
    27  H   -0.000924
    28  H    0.000418
    29  H    0.001499
    30  O   -0.209516
    31  N   -0.293483
    32  N   -0.261961
    33  C    0.155061
    34  O   -0.207792
    35  O   -0.173371
    36  H    0.159588
    37  C    0.037149
    38  H    0.035163
    39  H    0.041804
    40  C   -0.015440
    41  H    0.034450
    42  H    0.037934
    43  H    0.046866
    44  C    0.041089
    45  H    0.040680
    46  H    0.034163
    47  C   -0.015073
    48  H    0.045544
    49  H    0.033352
    50  H    0.038623
    51  C    0.046798
    52  H    0.032470
    53  H    0.037842
    54  C    0.028540
    55  H    0.053810
    56  H    0.043167
    57  C   -0.016337
    58  H    0.052555
    59  H    0.046693
    60  H    0.046071
    61  C   -0.016018
    62  H    0.031364
    63  H    0.044695
    64  H    0.037353
 Sum of Mulliken charges =   1.00000
 Mulliken charges with hydrogens summed into heavy atoms:
               1
     1  C    0.223123
     2  C   -0.036823
     3  C    0.108708
     4  C    0.006503
     5  C   -0.002062
     6  C    0.007381
     7  C    0.221093
     8  C    0.004037
     9  C    0.112686
    10  C   -0.036799
    12  C    0.204365
    13  C    0.023539
    14  C    0.005792
    20  C   -0.082556
    21  C   -0.047526
    22  C    0.020142
    23  C    0.077763
    24  C    0.058648
    26  C    0.058152
    30  O   -0.209516
    31  N   -0.293483
    32  N   -0.261961
    33  C    0.155061
    34  O   -0.207792
    35  O   -0.013783
    37  C    0.114117
    40  C    0.103809
    44  C    0.115933
    47  C    0.102445
    51  C    0.117110
    54  C    0.125516
    57  C    0.128983
    61  C    0.097395
 Electronic spatial extent (au):  <R**2>=          18559.0688
 Charge=              1.0000 electrons
 Dipole moment (field-independent basis, Debye):
    X=             -0.2196    Y=             -4.7021    Z=             -1.6020  Tot=              4.9724
 Quadrupole moment (field-independent basis, Debye-Ang):
   XX=            -74.4504   YY=           -148.8595   ZZ=           -185.4950
   XY=             -3.3292   XZ=             -1.9281   YZ=            -15.7794
 Traceless Quadrupole moment (field-independent basis, Debye-Ang):
   XX=             61.8179   YY=            -12.5912   ZZ=            -49.2267
   XY=             -3.3292   XZ=             -1.9281   YZ=            -15.7794
 Octapole moment (field-independent basis, Debye-Ang**2):
  XXX=            -52.2077  YYY=            -35.3010  ZZZ=             19.0119  XYY=             21.0164
  XXY=           -216.4644  XXZ=             25.4781  XZZ=              1.0129  YZZ=              6.7800
  YYZ=            -66.3689  XYZ=             -2.8324
 Hexadecapole moment (field-independent basis, Debye-Ang**3):
 XXXX=         -10701.6352 YYYY=          -7370.3965 ZZZZ=          -1277.7140 XXXY=            -61.2528
 XXXZ=            -60.3302 YYYX=            -67.4457 YYYZ=           -374.2459 ZZZX=             -1.7672
 ZZZY=            -57.2736 XXYY=          -3255.9170 XXZZ=          -2757.0653 YYZZ=          -1628.4606
 XXYZ=             -7.6871 YYXZ=            -23.5405 ZZXY=              0.6398
 N-N= 3.293395780058D+03 E-N=-9.862922100895D+03  KE= 1.410811016247D+03
 No NMR shielding tensors so no spin-rotation constants.
 Leave Link  601 at Thu Jun 10 22:57:16 2021, MaxMem=   134217728 cpu:               4.5 elap:               0.3
 (Enter /APL/ISV/x86_64/gaussian/16/C.01/g16/l9999.exe)
 Unable to Open any file for archive entry.
 1\1\GINC-LEMON\FOpt\RB3LYP\CC-pVDZ\C28H31N2O3(1+)\YAGI\10-Jun-2021\0\\
 #p opt b3lyp/cc-pvdz geom=connectivity\\Rhodamine (2)\\1,1\C,-3.652809
 7637,-0.9501245478,0.0984349706\C,-2.4032363987,-1.6262425893,0.157190
 5631\C,-1.2208504141,-0.9265930493,0.0103769207\C,-1.1711482921,0.4795
 427105,-0.222090297\C,-2.4307374893,1.141643441,-0.300431781\C,-3.6162
 499886,0.4692349149,-0.1539716415\C,0.0809594291,1.1164270408,-0.35742
 7398\C,1.2524013539,0.3360810308,-0.2771286247\C,1.1452026461,-1.06734
 22582,-0.0418758052\C,2.2431088603,-1.9013379243,0.0544161119\H,2.0546
 861764,-2.959641474,0.2142706916\C,3.5572961249,-1.3766889667,-0.07679
 18656\C,3.6802892019,0.0407140884,-0.3115659958\C,2.5780881091,0.84802
 0137,-0.4053197702\H,-2.3281053892,-2.6982334835,0.3162082768\H,-2.445
 5425014,2.2155389829,-0.4876744525\H,-4.5406663639,1.0338738365,-0.236
 7946205\H,4.6646459579,0.4938069663,-0.4005938199\H,2.7104479463,1.916
 5602889,-0.5760259148\C,0.1598664474,2.5782147015,-0.6749262778\C,0.22
 55220027,3.6080407768,0.2928703835\C,0.1639127152,2.9260847943,-2.0360
 356106\C,0.2915314601,4.9465850327,-0.1297594012\C,0.2303502399,4.2616
 054303,-2.4396533426\H,0.1130280472,2.1351364775,-2.7870974928\C,0.294
 2640594,5.2773500158,-1.4825390412\H,0.3407981755,5.716795151,0.640572
 5642\H,0.2316699891,4.5039873212,-3.5043161733\H,0.3462166334,6.323444
 7154,-1.7894161938\O,-0.0738427328,-1.6582741591,0.0935482209\N,-4.834
 7801428,-1.6021867419,0.2729373267\N,4.6542611528,-2.1707758111,0.0180
 048482\C,0.2333127143,3.4028422322,1.7766520045\O,0.2797955561,4.30424
 74197,2.5827854088\O,0.184930442,2.1017608493,2.1505035404\H,0.1952072
 326,2.1063505397,3.1259091757\C,6.0189429716,-1.663189174,-0.200057044
 3\H,6.6079130926,-2.5017362255,-0.6007696966\H,6.00148046,-0.904506321
 8,-0.9951364125\C,6.6790549999,-1.1170519122,1.0677775156\H,6.12766331
 13,-0.2543568984,1.4728185156\H,6.7304166643,-1.8857591111,1.854951323
 \H,7.7078167612,-0.7929081046,0.8452537559\C,4.5524363839,-3.601359419
 4,0.3440995771\H,3.7401956703,-3.747799664,1.0708228442\H,5.4793366879
 ,-3.8755235861,0.8695311034\C,4.3605384136,-4.4968141525,-0.8824038775
 \H,4.3241088997,-5.5532486868,-0.5732298231\H,3.4255594493,-4.26227772
 15,-1.4142216795\H,5.1929541679,-4.3823794361,-1.594476081\C,-4.865937
 9192,-3.0662412544,0.4081036928\H,-5.7755283008,-3.3339963865,0.956194
 7657\H,-4.0334447032,-3.3737068643,1.0567252135\C,-6.1054168281,-0.850
 8369519,0.1337779924\H,-6.0340541566,0.0465426026,0.7675377837\H,-6.20
 13693539,-0.4992331661,-0.9096228138\C,-7.3690229178,-1.6069776947,0.5
 285786269\H,-7.3502062021,-1.9302814985,1.580597338\H,-8.221728548,-0.
 9210571379,0.4113520308\H,-7.56469171,-2.4815530314,-0.1091745781\C,-4
 .8203003747,-3.8115529577,-0.9291084749\H,-3.9040054722,-3.5802263466,
 -1.4940227479\H,-4.8483377452,-4.8986793965,-0.7532620743\H,-5.6826188
 988,-3.5495453924,-1.5621112629\\Version=ES64L-G16RevC.01\State=1-A\HF
 =-1420.738219\RMSD=8.116e-09\RMSF=1.036e-06\Dipole=-0.0986591,-1.85036
 86,-0.6272423\Quadrupole=45.9228667,-9.3657345,-36.5571323,-2.8321406,
 -1.6362322,-11.7604044\PG=C01 [X(C28H31N2O3)]\\@
 The archive entry for this job was punched.


 THOSE WHO ARE UNABLE TO LEARN FROM PAST MEETINGS
 ARE CONDEMNED TO REPEAT THEM.
 Job cpu time:       0 days  6 hours  9 minutes 40.3 seconds.
 Elapsed time:       0 days  0 hours 23 minutes 15.6 seconds.
 File lengths (MBytes):  RWF=    240 Int=      0 D2E=      0 Chk=     31 Scr=      1
 Normal termination of Gaussian 16 at Thu Jun 10 22:57:17 2021.

real	23m16.616s
user	369m14.649s
sys	0m25.739s
