 Entering Gaussian System, Link 0=g16
 Initial command:
 /APL/ISV/x86_64/gaussian/16/C.01/g16/l1.exe "/scr/yagi/rhodamine.62284/Gau-3747.inp" -scrdir="/scr/yagi/rhodamine.62284/"
 Entering Link 1 = /APL/ISV/x86_64/gaussian/16/C.01/g16/l1.exe PID=      3748.
  
 Copyright (c) 1988-2019, Gaussian, Inc.  All Rights Reserved.
  
 This is part of the Gaussian(R) 16 program.  It is based on
 the Gaussian(R) 09 system (copyright 2009, Gaussian, Inc.),
 the Gaussian(R) 03 system (copyright 2003, Gaussian, Inc.),
 the Gaussian(R) 98 system (copyright 1998, Gaussian, Inc.),
 the Gaussian(R) 94 system (copyright 1995, Gaussian, Inc.),
 the Gaussian 92(TM) system (copyright 1992, Gaussian, Inc.),
 the Gaussian 90(TM) system (copyright 1990, Gaussian, Inc.),
 the Gaussian 88(TM) system (copyright 1988, Gaussian, Inc.),
 the Gaussian 86(TM) system (copyright 1986, Carnegie Mellon
 University), and the Gaussian 82(TM) system (copyright 1983,
 Carnegie Mellon University). Gaussian is a federally registered
 trademark of Gaussian, Inc.
  
 This software contains proprietary and confidential information,
 including trade secrets, belonging to Gaussian, Inc.
  
 This software is provided under written license and may be
 used, copied, transmitted, or stored only in accord with that
 written license.
  
 The following legend is applicable only to US Government
 contracts under FAR:
  
                    RESTRICTED RIGHTS LEGEND
  
 Use, reproduction and disclosure by the US Government is
 subject to restrictions as set forth in subparagraphs (a)
 and (c) of the Commercial Computer Software - Restricted
 Rights clause in FAR 52.227-19.
  
 Gaussian, Inc.
 340 Quinnipiac St., Bldg. 40, Wallingford CT 06492
  
  
 ---------------------------------------------------------------
 Warning -- This program may not be used in any manner that
 competes with the business of Gaussian, Inc. or will provide
 assistance to any competitor of Gaussian, Inc.  The licensee
 of this program is prohibited from giving any competitor of
 Gaussian, Inc. access to this program.  By using this program,
 the user acknowledges that Gaussian, Inc. is engaged in the
 business of creating and licensing software in the field of
 computational chemistry and represents and warrants to the
 licensee that it is not a competitor of Gaussian, Inc. and that
 it will not use this program in any manner prohibited above.
 ---------------------------------------------------------------
  

 Cite this work as:
 Gaussian 16, Revision C.01,
 M. J. Frisch, G. W. Trucks, H. B. Schlegel, G. E. Scuseria, 
 M. A. Robb, J. R. Cheeseman, G. Scalmani, V. Barone, 
 G. A. Petersson, H. Nakatsuji, X. Li, M. Caricato, A. V. Marenich, 
 J. Bloino, B. G. Janesko, R. Gomperts, B. Mennucci, H. P. Hratchian, 
 J. V. Ortiz, A. F. Izmaylov, J. L. Sonnenberg, D. Williams-Young, 
 F. Ding, F. Lipparini, F. Egidi, J. Goings, B. Peng, A. Petrone, 
 T. Henderson, D. Ranasinghe, V. G. Zakrzewski, J. Gao, N. Rega, 
 G. Zheng, W. Liang, M. Hada, M. Ehara, K. Toyota, R. Fukuda, 
 J. Hasegawa, M. Ishida, T. Nakajima, Y. Honda, O. Kitao, H. Nakai, 
 T. Vreven, K. Throssell, J. A. Montgomery, Jr., J. E. Peralta, 
 F. Ogliaro, M. J. Bearpark, J. J. Heyd, E. N. Brothers, K. N. Kudin, 
 V. N. Staroverov, T. A. Keith, R. Kobayashi, J. Normand, 
 K. Raghavachari, A. P. Rendell, J. C. Burant, S. S. Iyengar, 
 J. Tomasi, M. Cossi, J. M. Millam, M. Klene, C. Adamo, R. Cammi, 
 J. W. Ochterski, R. L. Martin, K. Morokuma, O. Farkas, 
 J. B. Foresman, and D. J. Fox, Gaussian, Inc., Wallingford CT, 2019.
 
 ******************************************
 Gaussian 16:  ES64L-G16RevC.01  3-Jul-2019
                10-Jun-2021 
 ******************************************
 %NprocShared=16
 Will use up to   16 processors via shared memory.
 %oldchk=rhodamine2.chk
 %chk=rhodamine2_tddft.chk
 %mem=1gb
 Copying data from "rhodamine2.chk" to current chk file "rhodamine2_tddft.chk"
 IOpt=  2 FromEx=T IUOpen= 4 IOptOp= 5 NList=   0 IFRang= 0 IUIn= 4 IUOut= 2.
 ----------------------------------------------------------------
 #p B3LYP/cc-pVDZ TD=(singlets,root=1) geom=checkpoint guess=read
 ----------------------------------------------------------------
 1/29=2,38=1,172=1/1;
 2/12=2,40=1/2;
 3/5=16,11=9,14=-4,25=1,30=1,74=-5,116=-2/1,2,3,8;
 4/5=1/1;
 5/5=2,38=6/2;
 8/6=1,10=1,107=1/1;
 9/8=1,42=1,48=1,70=2/14;
 6/7=2,8=2,9=2,10=2/1;
 99/5=1,9=1/99;
 Leave Link    1 at Thu Jun 10 22:57:34 2021, MaxMem=   134217728 cpu:               0.7 elap:               0.0
 (Enter /APL/ISV/x86_64/gaussian/16/C.01/g16/l101.exe)
 ---------------
 rhodamine TDDFT
 ---------------
 Structure from the checkpoint file:  "rhodamine2_tddft.chk"
 Charge =  1 Multiplicity = 1
 Redundant internal coordinates found in file.  (old form).
 C,0,-3.6528097637,-0.9501245478,0.0984349706
 C,0,-2.4032363987,-1.6262425893,0.1571905631
 C,0,-1.2208504141,-0.9265930493,0.0103769207
 C,0,-1.1711482921,0.4795427105,-0.222090297
 C,0,-2.4307374893,1.141643441,-0.300431781
 C,0,-3.6162499886,0.4692349149,-0.1539716415
 C,0,0.0809594291,1.1164270408,-0.357427398
 C,0,1.2524013539,0.3360810308,-0.2771286247
 C,0,1.1452026461,-1.0673422582,-0.0418758052
 C,0,2.2431088603,-1.9013379243,0.0544161119
 H,0,2.0546861764,-2.959641474,0.2142706916
 C,0,3.5572961249,-1.3766889667,-0.0767918656
 C,0,3.6802892019,0.0407140884,-0.3115659958
 C,0,2.5780881091,0.848020137,-0.4053197702
 H,0,-2.3281053892,-2.6982334835,0.3162082768
 H,0,-2.4455425014,2.2155389829,-0.4876744525
 H,0,-4.5406663639,1.0338738365,-0.2367946205
 H,0,4.6646459579,0.4938069663,-0.4005938199
 H,0,2.7104479463,1.9165602889,-0.5760259148
 C,0,0.1598664474,2.5782147015,-0.6749262778
 C,0,0.2255220027,3.6080407768,0.2928703835
 C,0,0.1639127152,2.9260847943,-2.0360356106
 C,0,0.2915314601,4.9465850327,-0.1297594012
 C,0,0.2303502399,4.2616054303,-2.4396533426
 H,0,0.1130280472,2.1351364775,-2.7870974928
 C,0,0.2942640594,5.2773500158,-1.4825390412
 H,0,0.3407981755,5.716795151,0.6405725642
 H,0,0.2316699891,4.5039873212,-3.5043161733
 H,0,0.3462166334,6.3234447154,-1.7894161938
 O,0,-0.0738427328,-1.6582741591,0.0935482209
 N,0,-4.8347801428,-1.6021867419,0.2729373267
 N,0,4.6542611528,-2.1707758111,0.0180048482
 C,0,0.2333127143,3.4028422322,1.7766520045
 O,0,0.2797955561,4.3042474197,2.5827854088
 O,0,0.184930442,2.1017608493,2.1505035404
 H,0,0.1952072326,2.1063505397,3.1259091757
 C,0,6.0189429716,-1.663189174,-0.2000570443
 H,0,6.6079130926,-2.5017362255,-0.6007696966
 H,0,6.00148046,-0.9045063218,-0.9951364125
 C,0,6.6790549999,-1.1170519122,1.0677775156
 H,0,6.1276633113,-0.2543568984,1.4728185156
 H,0,6.7304166643,-1.8857591111,1.854951323
 H,0,7.7078167612,-0.7929081046,0.8452537559
 C,0,4.5524363839,-3.6013594194,0.3440995771
 H,0,3.7401956703,-3.747799664,1.0708228442
 H,0,5.4793366879,-3.8755235861,0.8695311034
 C,0,4.3605384136,-4.4968141525,-0.8824038775
 H,0,4.3241088997,-5.5532486868,-0.5732298231
 H,0,3.4255594493,-4.2622777215,-1.4142216795
 H,0,5.1929541679,-4.3823794361,-1.594476081
 C,0,-4.8659379192,-3.0662412544,0.4081036928
 H,0,-5.7755283008,-3.3339963865,0.9561947657
 H,0,-4.0334447032,-3.3737068643,1.0567252135
 C,0,-6.1054168281,-0.8508369519,0.1337779924
 H,0,-6.0340541566,0.0465426026,0.7675377837
 H,0,-6.2013693539,-0.4992331661,-0.9096228138
 C,0,-7.3690229178,-1.6069776947,0.5285786269
 H,0,-7.3502062021,-1.9302814985,1.580597338
 H,0,-8.221728548,-0.9210571379,0.4113520308
 H,0,-7.56469171,-2.4815530314,-0.1091745781
 C,0,-4.8203003747,-3.8115529577,-0.9291084749
 H,0,-3.9040054722,-3.5802263466,-1.4940227479
 H,0,-4.8483377452,-4.8986793965,-0.7532620743
 H,0,-5.6826188988,-3.5495453924,-1.5621112629
 Recover connectivity data from disk.
 ITRead=  0  0  0  0  0  0  0  0  0  0  0  0  0  0  0  0  0  0  0  0
 ITRead=  0  0  0  0  0  0  0  0  0  0  0  0  0  0  0  0  0  0  0  0
 ITRead=  0  0  0  0  0  0  0  0  0  0  0  0  0  0  0  0  0  0  0  0
 ITRead=  0  0  0  0
 MicOpt= -1 -1 -1 -1 -1 -1 -1 -1 -1 -1 -1 -1 -1 -1 -1 -1 -1 -1 -1 -1
 MicOpt= -1 -1 -1 -1 -1 -1 -1 -1 -1 -1 -1 -1 -1 -1 -1 -1 -1 -1 -1 -1
 MicOpt= -1 -1 -1 -1 -1 -1 -1 -1 -1 -1 -1 -1 -1 -1 -1 -1 -1 -1 -1 -1
 MicOpt= -1 -1 -1 -1
                           ----------------------------
                           !    Current Parameters    !
                           ! (Angstroms and Degrees)  !
 --------------------------                            --------------------------
 ! Name  Definition              Value                                          !
 --------------------------------------------------------------------------------
 ! R1    R(1,2)                  1.422                                          !
 ! R2    R(1,6)                  1.4421                                         !
 ! R3    R(1,31)                 1.3611                                         !
 ! R4    R(2,3)                  1.3817                                         !
 ! R5    R(2,15)                 1.0863                                         !
 ! R6    R(3,4)                  1.4261                                         !
 ! R7    R(3,30)                 1.363                                          !
 ! R8    R(4,5)                  1.4252                                         !
 ! R9    R(4,7)                  1.4113                                         !
 ! R10   R(5,6)                  1.3708                                         !
 ! R11   R(5,16)                 1.0902                                         !
 ! R12   R(6,17)                 1.0864                                         !
 ! R13   R(7,8)                  1.4098                                         !
 ! R14   R(7,20)                 1.498                                          !
 ! R15   R(8,9)                  1.427                                          !
 ! R16   R(8,14)                 1.4269                                         !
 ! R17   R(9,10)                 1.3821                                         !
 ! R18   R(9,30)                 1.3615                                         !
 ! R19   R(10,11)                1.0868                                         !
 ! R20   R(10,12)                1.4211                                         !
 ! R21   R(12,13)                1.442                                          !
 ! R22   R(12,32)                1.3575                                         !
 ! R23   R(13,14)                1.3694                                         !
 ! R24   R(13,18)                1.0873                                         !
 ! R25   R(14,19)                1.0902                                         !
 ! R26   R(20,21)                1.4147                                         !
 ! R27   R(20,22)                1.4049                                         !
 ! R28   R(21,23)                1.4052                                         !
 ! R29   R(21,33)                1.4979                                         !
 ! R30   R(22,24)                1.3968                                         !
 ! R31   R(22,25)                1.0919                                         !
 ! R32   R(23,26)                1.3926                                         !
 ! R33   R(23,27)                1.0904                                         !
 ! R34   R(24,26)                1.3971                                         !
 ! R35   R(24,28)                1.0919                                         !
 ! R36   R(26,29)                1.0914                                         !
 ! R37   R(31,51)                1.4706                                         !
 ! R38   R(31,54)                1.4827                                         !
 ! R39   R(32,37)                1.4723                                         !
 ! R40   R(32,44)                1.4708                                         !
 ! R41   R(33,34)                1.2102                                         !
 ! R42   R(33,35)                1.3546                                         !
 ! R43   R(35,36)                0.9755                                         !
 ! R44   R(37,38)                1.1003                                         !
 ! R45   R(37,39)                1.0991                                         !
 ! R46   R(37,40)                1.5302                                         !
 ! R47   R(40,41)                1.1011                                         !
 ! R48   R(40,42)                1.1014                                         !
 ! R49   R(40,43)                1.1013                                         !
 ! R50   R(44,45)                1.0997                                         !
 ! R51   R(44,46)                1.1002                                         !
 ! R52   R(44,47)                1.5307                                         !
 ! R53   R(47,48)                1.1013                                         !
 ! R54   R(47,49)                1.1009                                         !
 ! R55   R(47,50)                1.1014                                         !
 ! R56   R(51,52)                1.0952                                         !
 ! R57   R(51,53)                1.0992                                         !
 ! R58   R(51,61)                1.5316                                         !
 ! R59   R(54,55)                1.1009                                         !
 ! R60   R(54,56)                1.1052                                         !
 ! R61   R(54,57)                1.5246                                         !
 ! R62   R(57,58)                1.1007                                         !
 ! R63   R(57,59)                1.1006                                         !
 ! R64   R(57,60)                1.1                                            !
 ! R65   R(61,62)                1.101                                          !
 ! R66   R(61,63)                1.1016                                         !
 ! R67   R(61,64)                1.1013                                         !
 ! A1    A(2,1,6)              116.9322                                         !
 ! A2    A(2,1,31)             122.0061                                         !
 ! A3    A(6,1,31)             121.0617                                         !
 ! A4    A(1,2,3)              120.4533                                         !
 ! A5    A(1,2,15)             122.4137                                         !
 ! A6    A(3,2,15)             117.133                                          !
 ! A7    A(2,3,4)              123.1223                                         !
 ! A8    A(2,3,30)             116.2195                                         !
 ! A9    A(4,3,30)             120.6575                                         !
 ! A10   A(3,4,5)              115.8641                                         !
 ! A11   A(3,4,7)              119.4406                                         !
 ! A12   A(5,4,7)              124.6953                                         !
 ! A13   A(4,5,6)              122.0466                                         !
 ! A14   A(4,5,16)             118.6251                                         !
 ! A15   A(6,5,16)             119.3276                                         !
 ! A16   A(1,6,5)              121.5623                                         !
 ! A17   A(1,6,17)             120.22                                           !
 ! A18   A(5,6,17)             118.2172                                         !
 ! A19   A(4,7,8)              118.8123                                         !
 ! A20   A(4,7,20)             120.494                                          !
 ! A21   A(8,7,20)             120.5599                                         !
 ! A22   A(7,8,9)              119.4268                                         !
 ! A23   A(7,8,14)             124.6301                                         !
 ! A24   A(9,8,14)             115.9414                                         !
 ! A25   A(8,9,10)             123.0418                                         !
 ! A26   A(8,9,30)             120.6982                                         !
 ! A27   A(10,9,30)            116.2591                                         !
 ! A28   A(9,10,11)            117.3961                                         !
 ! A29   A(9,10,12)            120.3577                                         !
 ! A30   A(11,10,12)           122.2373                                         !
 ! A31   A(10,12,13)           117.1809                                         !
 ! A32   A(10,12,32)           121.6588                                         !
 ! A33   A(13,12,32)           121.16                                           !
 ! A34   A(12,13,14)           121.4642                                         !
 ! A35   A(12,13,18)           120.0115                                         !
 ! A36   A(14,13,18)           118.5154                                         !
 ! A37   A(8,14,13)            122.0135                                         !
 ! A38   A(8,14,19)            118.5903                                         !
 ! A39   A(13,14,19)           119.3948                                         !
 ! A40   A(7,20,21)            124.5972                                         !
 ! A41   A(7,20,22)            116.5607                                         !
 ! A42   A(21,20,22)           118.8419                                         !
 ! A43   A(20,21,23)           119.3289                                         !
 ! A44   A(20,21,33)           125.3203                                         !
 ! A45   A(23,21,33)           115.3508                                         !
 ! A46   A(20,22,24)           121.1222                                         !
 ! A47   A(20,22,25)           119.1379                                         !
 ! A48   A(24,22,25)           119.7398                                         !
 ! A49   A(21,23,26)           121.2303                                         !
 ! A50   A(21,23,27)           117.5464                                         !
 ! A51   A(26,23,27)           121.2233                                         !
 ! A52   A(22,24,26)           119.9586                                         !
 ! A53   A(22,24,28)           119.608                                          !
 ! A54   A(26,24,28)           120.4334                                         !
 ! A55   A(23,26,24)           119.5181                                         !
 ! A56   A(23,26,29)           120.0575                                         !
 ! A57   A(24,26,29)           120.4244                                         !
 ! A58   A(3,30,9)             120.958                                          !
 ! A59   A(1,31,51)            120.4711                                         !
 ! A60   A(1,31,54)            119.2997                                         !
 ! A61   A(51,31,54)           119.6667                                         !
 ! A62   A(12,32,37)           122.4796                                         !
 ! A63   A(12,32,44)           121.9036                                         !
 ! A64   A(37,32,44)           115.6167                                         !
 ! A65   A(21,33,34)           123.9176                                         !
 ! A66   A(21,33,35)           113.877                                          !
 ! A67   A(34,33,35)           122.2054                                         !
 ! A68   A(33,35,36)           105.7282                                         !
 ! A69   A(32,37,38)           106.7002                                         !
 ! A70   A(32,37,39)           109.2929                                         !
 ! A71   A(32,37,40)           113.5911                                         !
 ! A72   A(38,37,39)           105.7311                                         !
 ! A73   A(38,37,40)           110.0501                                         !
 ! A74   A(39,37,40)           111.0911                                         !
 ! A75   A(37,40,41)           111.6174                                         !
 ! A76   A(37,40,42)           111.2951                                         !
 ! A77   A(37,40,43)           109.9139                                         !
 ! A78   A(41,40,42)           107.8946                                         !
 ! A79   A(41,40,43)           108.1501                                         !
 ! A80   A(42,40,43)           107.8332                                         !
 ! A81   A(32,44,45)           109.0974                                         !
 ! A82   A(32,44,46)           106.8547                                         !
 ! A83   A(32,44,47)           113.5802                                         !
 ! A84   A(45,44,46)           105.8717                                         !
 ! A85   A(45,44,47)           111.0402                                         !
 ! A86   A(46,44,47)           110.0306                                         !
 ! A87   A(44,47,48)           109.8986                                         !
 ! A88   A(44,47,49)           111.6488                                         !
 ! A89   A(44,47,50)           111.2546                                         !
 ! A90   A(48,47,49)           108.1717                                         !
 ! A91   A(48,47,50)           107.8277                                         !
 ! A92   A(49,47,50)           107.9038                                         !
 ! A93   A(31,51,52)           107.8777                                         !
 ! A94   A(31,51,53)           108.4607                                         !
 ! A95   A(31,51,61)           113.8024                                         !
 ! A96   A(52,51,53)           105.3855                                         !
 ! A97   A(52,51,61)           110.0426                                         !
 ! A98   A(53,51,61)           110.8859                                         !
 ! A99   A(31,54,55)           107.6665                                         !
 ! A100  A(31,54,56)           108.918                                          !
 ! A101  A(31,54,57)           115.763                                          !
 ! A102  A(55,54,56)           106.8446                                         !
 ! A103  A(55,54,57)           107.9944                                         !
 ! A104  A(56,54,57)           109.2869                                         !
 ! A105  A(54,57,58)           112.2719                                         !
 ! A106  A(54,57,59)           107.7859                                         !
 ! A107  A(54,57,60)           113.0566                                         !
 ! A108  A(58,57,59)           107.3429                                         !
 ! A109  A(58,57,60)           108.8835                                         !
 ! A110  A(59,57,60)           107.2144                                         !
 ! A111  A(51,61,62)           111.7483                                         !
 ! A112  A(51,61,63)           109.8833                                         !
 ! A113  A(51,61,64)           111.2674                                         !
 ! A114  A(62,61,63)           108.0847                                         !
 ! A115  A(62,61,64)           107.8623                                         !
 ! A116  A(63,61,64)           107.8539                                         !
 ! D1    D(6,1,2,3)              1.614                                          !
 ! D2    D(6,1,2,15)          -178.3632                                         !
 ! D3    D(31,1,2,3)          -178.288                                          !
 ! D4    D(31,1,2,15)            1.7347                                         !
 ! D5    D(2,1,6,5)             -1.4381                                         !
 ! D6    D(2,1,6,17)           178.3203                                         !
 ! D7    D(31,1,6,5)           178.4649                                         !
 ! D8    D(31,1,6,17)           -1.7767                                         !
 ! D9    D(2,1,31,51)           -5.6621                                         !
 ! D10   D(2,1,31,54)         -177.0339                                         !
 ! D11   D(6,1,31,51)          174.4399                                         !
 ! D12   D(6,1,31,54)            3.0681                                         !
 ! D13   D(1,2,3,4)             -0.8651                                         !
 ! D14   D(1,2,3,30)           179.4233                                         !
 ! D15   D(15,2,3,4)           179.1133                                         !
 ! D16   D(15,2,3,30)           -0.5984                                         !
 ! D17   D(2,3,4,5)             -0.1497                                         !
 ! D18   D(2,3,4,7)            179.8604                                         !
 ! D19   D(30,3,4,5)           179.5496                                         !
 ! D20   D(30,3,4,7)            -0.4403                                         !
 ! D21   D(2,3,30,9)           179.7618                                         !
 ! D22   D(4,3,30,9)             0.0425                                         !
 ! D23   D(3,4,5,6)              0.3462                                         !
 ! D24   D(3,4,5,16)          -179.3513                                         !
 ! D25   D(7,4,5,6)           -179.6646                                         !
 ! D26   D(7,4,5,16)             0.6379                                         !
 ! D27   D(3,4,7,8)              0.8882                                         !
 ! D28   D(3,4,7,20)           176.7068                                         !
 ! D29   D(5,4,7,8)           -179.1006                                         !
 ! D30   D(5,4,7,20)            -3.282                                          !
 ! D31   D(4,5,6,1)              0.4679                                         !
 ! D32   D(4,5,6,17)          -179.2952                                         !
 ! D33   D(16,5,6,1)          -179.8367                                         !
 ! D34   D(16,5,6,17)            0.4003                                         !
 ! D35   D(4,7,8,9)             -0.9502                                         !
 ! D36   D(4,7,8,14)           179.5507                                         !
 ! D37   D(20,7,8,9)          -176.766                                          !
 ! D38   D(20,7,8,14)            3.735                                          !
 ! D39   D(4,7,20,21)           91.2879                                         !
 ! D40   D(4,7,20,22)          -88.5359                                         !
 ! D41   D(8,7,20,21)          -92.967                                          !
 ! D42   D(8,7,20,22)           87.2092                                         !
 ! D43   D(7,8,9,10)          -179.7976                                         !
 ! D44   D(7,8,9,30)             0.5693                                         !
 ! D45   D(14,8,9,10)           -0.256                                          !
 ! D46   D(14,8,9,30)         -179.8891                                         !
 ! D47   D(7,8,14,13)          179.6724                                         !
 ! D48   D(7,8,14,19)            0.1099                                         !
 ! D49   D(9,8,14,13)            0.1576                                         !
 ! D50   D(9,8,14,19)         -179.4049                                         !
 ! D51   D(8,9,10,11)         -178.7366                                         !
 ! D52   D(8,9,10,12)            0.2055                                         !
 ! D53   D(30,9,10,11)           0.9117                                         !
 ! D54   D(30,9,10,12)         179.8537                                         !
 ! D55   D(8,9,30,3)            -0.107                                          !
 ! D56   D(10,9,30,3)         -179.7641                                         !
 ! D57   D(9,10,12,13)          -0.0463                                         !
 ! D58   D(9,10,12,32)         179.7588                                         !
 ! D59   D(11,10,12,13)        178.8432                                         !
 ! D60   D(11,10,12,32)         -1.3516                                         !
 ! D61   D(10,12,13,14)         -0.0471                                         !
 ! D62   D(10,12,13,18)        178.8578                                         !
 ! D63   D(32,12,13,14)       -179.8533                                         !
 ! D64   D(32,12,13,18)         -0.9484                                         !
 ! D65   D(10,12,32,37)        175.9946                                         !
 ! D66   D(10,12,32,44)         -3.8678                                         !
 ! D67   D(13,12,32,37)         -4.2079                                         !
 ! D68   D(13,12,32,44)        175.9297                                         !
 ! D69   D(12,13,14,8)          -0.0134                                         !
 ! D70   D(12,13,14,19)        179.5457                                         !
 ! D71   D(18,13,14,8)        -178.9342                                         !
 ! D72   D(18,13,14,19)          0.6248                                         !
 ! D73   D(7,20,21,23)        -179.7604                                         !
 ! D74   D(7,20,21,33)           0.314                                          !
 ! D75   D(22,20,21,23)          0.0596                                         !
 ! D76   D(22,20,21,33)       -179.866                                          !
 ! D77   D(7,20,22,24)         179.7918                                         !
 ! D78   D(7,20,22,25)          -0.1431                                         !
 ! D79   D(21,20,22,24)         -0.0426                                         !
 ! D80   D(21,20,22,25)       -179.9775                                         !
 ! D81   D(20,21,23,26)         -0.0374                                         !
 ! D82   D(20,21,23,27)        179.978                                          !
 ! D83   D(33,21,23,26)        179.8954                                         !
 ! D84   D(33,21,23,27)         -0.0892                                         !
 ! D85   D(20,21,33,34)       -179.4032                                         !
 ! D86   D(20,21,33,35)          0.6786                                         !
 ! D87   D(23,21,33,34)          0.6686                                         !
 ! D88   D(23,21,33,35)       -179.2496                                         !
 ! D89   D(20,22,24,26)          0.0019                                         !
 ! D90   D(20,22,24,28)       -179.9836                                         !
 ! D91   D(25,22,24,26)        179.9364                                         !
 ! D92   D(25,22,24,28)         -0.0491                                         !
 ! D93   D(21,23,26,24)         -0.0036                                         !
 ! D94   D(21,23,26,29)       -179.9933                                         !
 ! D95   D(27,23,26,24)        179.9805                                         !
 ! D96   D(27,23,26,29)         -0.0093                                         !
 ! D97   D(22,24,26,23)          0.0216                                         !
 ! D98   D(22,24,26,29)       -179.9887                                         !
 ! D99   D(28,24,26,23)       -179.9931                                         !
 ! D100  D(28,24,26,29)         -0.0034                                         !
 ! D101  D(1,31,51,52)         155.5677                                         !
 ! D102  D(1,31,51,53)          41.8909                                         !
 ! D103  D(1,31,51,61)         -82.0297                                         !
 ! D104  D(54,31,51,52)        -33.0921                                         !
 ! D105  D(54,31,51,53)       -146.7689                                         !
 ! D106  D(54,31,51,61)         89.3105                                         !
 ! D107  D(1,31,54,55)         -51.1278                                         !
 ! D108  D(1,31,54,56)          64.3805                                         !
 ! D109  D(1,31,54,57)        -172.0392                                         !
 ! D110  D(51,31,54,55)        137.43                                           !
 ! D111  D(51,31,54,56)       -107.0617                                         !
 ! D112  D(51,31,54,57)         16.5186                                         !
 ! D113  D(12,32,37,38)       -149.8376                                         !
 ! D114  D(12,32,37,39)        -35.9511                                         !
 ! D115  D(12,32,37,40)         88.7227                                         !
 ! D116  D(44,32,37,38)         30.0328                                         !
 ! D117  D(44,32,37,39)        143.9193                                         !
 ! D118  D(44,32,37,40)        -91.4069                                         !
 ! D119  D(12,32,44,45)        -36.3987                                         !
 ! D120  D(12,32,44,46)       -150.4339                                         !
 ! D121  D(12,32,44,47)         88.0501                                         !
 ! D122  D(37,32,44,45)        143.73                                           !
 ! D123  D(37,32,44,46)         29.6949                                         !
 ! D124  D(37,32,44,47)        -91.8212                                         !
 ! D125  D(21,33,35,36)       -179.9716                                         !
 ! D126  D(34,33,35,36)          0.1086                                         !
 ! D127  D(32,37,40,41)        -62.3034                                         !
 ! D128  D(32,37,40,42)         58.307                                          !
 ! D129  D(32,37,40,43)        177.7002                                         !
 ! D130  D(38,37,40,41)        178.1467                                         !
 ! D131  D(38,37,40,42)        -61.2429                                         !
 ! D132  D(38,37,40,43)         58.1503                                         !
 ! D133  D(39,37,40,41)         61.3967                                         !
 ! D134  D(39,37,40,42)       -177.9929                                         !
 ! D135  D(39,37,40,43)        -58.5997                                         !
 ! D136  D(32,44,47,48)        178.2085                                         !
 ! D137  D(32,44,47,49)        -61.7579                                         !
 ! D138  D(32,44,47,50)         58.8578                                         !
 ! D139  D(45,44,47,48)        -58.3981                                         !
 ! D140  D(45,44,47,49)         61.6354                                         !
 ! D141  D(45,44,47,50)       -177.7488                                         !
 ! D142  D(46,44,47,48)         58.4821                                         !
 ! D143  D(46,44,47,49)        178.5157                                         !
 ! D144  D(46,44,47,50)        -60.8686                                         !
 ! D145  D(31,51,61,62)         60.1099                                         !
 ! D146  D(31,51,61,63)       -179.9116                                         !
 ! D147  D(31,51,61,64)        -60.5301                                         !
 ! D148  D(52,51,61,62)       -178.687                                          !
 ! D149  D(52,51,61,63)        -58.7085                                         !
 ! D150  D(52,51,61,64)         60.673                                          !
 ! D151  D(53,51,61,62)        -62.4885                                         !
 ! D152  D(53,51,61,63)         57.49                                           !
 ! D153  D(53,51,61,64)        176.8715                                         !
 ! D154  D(31,54,57,58)         59.9034                                         !
 ! D155  D(31,54,57,59)        177.9166                                         !
 ! D156  D(31,54,57,60)        -63.7677                                         !
 ! D157  D(55,54,57,58)        -60.8312                                         !
 ! D158  D(55,54,57,59)         57.182                                          !
 ! D159  D(55,54,57,60)        175.4977                                         !
 ! D160  D(56,54,57,58)       -176.7095                                         !
 ! D161  D(56,54,57,59)        -58.6963                                         !
 ! D162  D(56,54,57,60)         59.6194                                         !
 --------------------------------------------------------------------------------
 NAtoms=     64 NQM=       64 NQMF=       0 NMMI=      0 NMMIF=      0
                NMic=       0 NMicF=      0.
                    Isotopes and Nuclear Properties:
 (Nuclear quadrupole moments (NQMom) in fm**2, nuclear magnetic moments (NMagM)
  in nuclear magnetons)

  Atom         1           2           3           4           5           6           7           8           9          10
 IAtWgt=          12          12          12          12          12          12          12          12          12          12
 AtmWgt=  12.0000000  12.0000000  12.0000000  12.0000000  12.0000000  12.0000000  12.0000000  12.0000000  12.0000000  12.0000000
 NucSpn=           0           0           0           0           0           0           0           0           0           0
 AtZEff=   3.6000000   3.6000000   3.6000000   3.6000000   3.6000000   3.6000000   3.6000000   3.6000000   3.6000000   3.6000000
 NQMom=    0.0000000   0.0000000   0.0000000   0.0000000   0.0000000   0.0000000   0.0000000   0.0000000   0.0000000   0.0000000
 NMagM=    0.0000000   0.0000000   0.0000000   0.0000000   0.0000000   0.0000000   0.0000000   0.0000000   0.0000000   0.0000000
 AtZNuc=   6.0000000   6.0000000   6.0000000   6.0000000   6.0000000   6.0000000   6.0000000   6.0000000   6.0000000   6.0000000

  Atom        11          12          13          14          15          16          17          18          19          20
 IAtWgt=           1          12          12          12           1           1           1           1           1          12
 AtmWgt=   1.0078250  12.0000000  12.0000000  12.0000000   1.0078250   1.0078250   1.0078250   1.0078250   1.0078250  12.0000000
 NucSpn=           1           0           0           0           1           1           1           1           1           0
 AtZEff=   1.0000000   3.6000000   3.6000000   3.6000000   1.0000000   1.0000000   1.0000000   1.0000000   1.0000000   3.6000000
 NQMom=    0.0000000   0.0000000   0.0000000   0.0000000   0.0000000   0.0000000   0.0000000   0.0000000   0.0000000   0.0000000
 NMagM=    2.7928460   0.0000000   0.0000000   0.0000000   2.7928460   2.7928460   2.7928460   2.7928460   2.7928460   0.0000000
 AtZNuc=   1.0000000   6.0000000   6.0000000   6.0000000   1.0000000   1.0000000   1.0000000   1.0000000   1.0000000   6.0000000

  Atom        21          22          23          24          25          26          27          28          29          30
 IAtWgt=          12          12          12          12           1          12           1           1           1          16
 AtmWgt=  12.0000000  12.0000000  12.0000000  12.0000000   1.0078250  12.0000000   1.0078250   1.0078250   1.0078250  15.9949146
 NucSpn=           0           0           0           0           1           0           1           1           1           0
 AtZEff=   3.6000000   3.6000000   3.6000000   3.6000000   1.0000000   3.6000000   1.0000000   1.0000000   1.0000000   5.6000000
 NQMom=    0.0000000   0.0000000   0.0000000   0.0000000   0.0000000   0.0000000   0.0000000   0.0000000   0.0000000   0.0000000
 NMagM=    0.0000000   0.0000000   0.0000000   0.0000000   2.7928460   0.0000000   2.7928460   2.7928460   2.7928460   0.0000000
 AtZNuc=   6.0000000   6.0000000   6.0000000   6.0000000   1.0000000   6.0000000   1.0000000   1.0000000   1.0000000   8.0000000

  Atom        31          32          33          34          35          36          37          38          39          40
 IAtWgt=          14          14          12          16          16           1          12           1           1          12
 AtmWgt=  14.0030740  14.0030740  12.0000000  15.9949146  15.9949146   1.0078250  12.0000000   1.0078250   1.0078250  12.0000000
 NucSpn=           2           2           0           0           0           1           0           1           1           0
 AtZEff=   4.5500000   4.5500000   3.6000000   5.6000000   5.6000000   1.0000000   3.6000000   1.0000000   1.0000000   3.6000000
 NQMom=    2.0440000   2.0440000   0.0000000   0.0000000   0.0000000   0.0000000   0.0000000   0.0000000   0.0000000   0.0000000
 NMagM=    0.4037610   0.4037610   0.0000000   0.0000000   0.0000000   2.7928460   0.0000000   2.7928460   2.7928460   0.0000000
 AtZNuc=   7.0000000   7.0000000   6.0000000   8.0000000   8.0000000   1.0000000   6.0000000   1.0000000   1.0000000   6.0000000

  Atom        41          42          43          44          45          46          47          48          49          50
 IAtWgt=           1           1           1          12           1           1          12           1           1           1
 AtmWgt=   1.0078250   1.0078250   1.0078250  12.0000000   1.0078250   1.0078250  12.0000000   1.0078250   1.0078250   1.0078250
 NucSpn=           1           1           1           0           1           1           0           1           1           1
 AtZEff=   1.0000000   1.0000000   1.0000000   3.6000000   1.0000000   1.0000000   3.6000000   1.0000000   1.0000000   1.0000000
 NQMom=    0.0000000   0.0000000   0.0000000   0.0000000   0.0000000   0.0000000   0.0000000   0.0000000   0.0000000   0.0000000
 NMagM=    2.7928460   2.7928460   2.7928460   0.0000000   2.7928460   2.7928460   0.0000000   2.7928460   2.7928460   2.7928460
 AtZNuc=   1.0000000   1.0000000   1.0000000   6.0000000   1.0000000   1.0000000   6.0000000   1.0000000   1.0000000   1.0000000

  Atom        51          52          53          54          55          56          57          58          59          60
 IAtWgt=          12           1           1          12           1           1          12           1           1           1
 AtmWgt=  12.0000000   1.0078250   1.0078250  12.0000000   1.0078250   1.0078250  12.0000000   1.0078250   1.0078250   1.0078250
 NucSpn=           0           1           1           0           1           1           0           1           1           1
 AtZEff=   3.6000000   1.0000000   1.0000000   3.6000000   1.0000000   1.0000000   3.6000000   1.0000000   1.0000000   1.0000000
 NQMom=    0.0000000   0.0000000   0.0000000   0.0000000   0.0000000   0.0000000   0.0000000   0.0000000   0.0000000   0.0000000
 NMagM=    0.0000000   2.7928460   2.7928460   0.0000000   2.7928460   2.7928460   0.0000000   2.7928460   2.7928460   2.7928460
 AtZNuc=   6.0000000   1.0000000   1.0000000   6.0000000   1.0000000   1.0000000   6.0000000   1.0000000   1.0000000   1.0000000

  Atom        61          62          63          64
 IAtWgt=          12           1           1           1
 AtmWgt=  12.0000000   1.0078250   1.0078250   1.0078250
 NucSpn=           0           1           1           1
 AtZEff=   3.6000000   1.0000000   1.0000000   1.0000000
 NQMom=    0.0000000   0.0000000   0.0000000   0.0000000
 NMagM=    0.0000000   2.7928460   2.7928460   2.7928460
 AtZNuc=   6.0000000   1.0000000   1.0000000   1.0000000
 Leave Link  101 at Thu Jun 10 22:57:34 2021, MaxMem=   134217728 cpu:               2.1 elap:               0.1
 (Enter /APL/ISV/x86_64/gaussian/16/C.01/g16/l202.exe)
 Stoichiometry    C28H31N2O3(1+)
 Framework group  C1[X(C28H31N2O3)]
 Deg. of freedom   186
 Full point group                 C1      NOp   1
 RotChk:  IX=0 Diff= 5.63D-16
 Largest Abelian subgroup         C1      NOp   1
 Largest concise Abelian subgroup C1      NOp   1
                         Standard orientation:                         
 ---------------------------------------------------------------------
 Center     Atomic      Atomic             Coordinates (Angstroms)
 Number     Number       Type             X           Y           Z
 ---------------------------------------------------------------------
      1          6           0       -3.644929   -0.971952    0.091979
      2          6           0       -2.391377   -1.640575    0.151743
      3          6           0       -1.213016   -0.933543    0.007968
      4          6           0       -1.171460    0.473230   -0.222229
      5          6           0       -2.434910    1.127807   -0.301618
      6          6           0       -3.616563    0.447997   -0.158159
      7          6           0        0.076983    1.117903   -0.354511
      8          6           0        1.253002    0.344546   -0.273494
      9          6           0        1.153929   -1.059867   -0.040602
     10          6           0        2.256713   -1.887343    0.056202
     11          1           0        2.074449   -2.947018    0.214099
     12          6           0        3.567908   -1.354534   -0.072022
     13          6           0        3.682689    0.063954   -0.304388
     14          6           0        2.575769    0.864711   -0.398703
     15          1           0       -2.310009   -2.712338    0.309216
     16          1           0       -2.455920    2.201885   -0.487213
     17          1           0       -4.544249    1.007152   -0.241627
     18          1           0        4.664425    0.523144   -0.391087
     19          1           0        2.701927    1.934300   -0.567528
     20          6           0        0.147546    2.580637   -0.669604
     21          6           0        0.205369    3.609326    0.299900
     22          6           0        0.151714    2.930656   -2.030162
     23          6           0        0.263954    4.948906   -0.120537
     24          6           0        0.210714    4.267185   -2.431592
     25          1           0        0.106858    2.140591   -2.782537
     26          6           0        0.266899    5.281799   -1.472794
     27          1           0        0.307287    5.718193    0.651072
     28          1           0        0.212310    4.511238   -3.495873
     29          1           0        0.313011    6.328668   -1.777957
     30          8           0       -0.061731   -1.658388    0.091892
     31          7           0       -4.823209   -1.631438    0.263517
     32          7           0        4.669511   -2.142105    0.023348
     33          6           0        0.211971    3.401855    1.783372
     34          8           0        0.251666    4.302262    2.590982
     35          8           0        0.170866    2.099921    2.155118
     36          1           0        0.179516    2.103046    3.130546
     37          6           0        6.031446   -1.625916   -0.191674
     38          1           0        6.626145   -2.460250   -0.592719
     39          1           0        6.010687   -0.866109   -0.985599
     40          6           0        6.686154   -1.077774    1.078096
     41          1           0        6.128879   -0.219072    1.483569
     42          1           0        6.740886   -1.847387    1.864156
     43          1           0        7.713295   -0.747053    0.857773
     44          6           0        4.575828   -3.573789    0.347048
     45          1           0        3.763299   -3.726287    1.072202
     46          1           0        5.503511   -3.843152    0.873580
     47          6           0        4.391374   -4.468468   -0.881162
     48          1           0        4.360844   -5.525587   -0.573692
     49          1           0        3.455863   -4.238771   -1.414155
     50          1           0        5.224247   -4.347876   -1.591681
     51          6           0       -4.845710   -3.095864    0.396354
     52          1           0       -5.754558   -3.369985    0.942527
     53          1           0       -4.012433   -3.399294    1.045868
     54          6           0       -6.098148   -0.887586    0.123432
     55          1           0       -6.033267    0.009216    0.758704
     56          1           0       -6.194520   -0.534937   -0.919578
     57          6           0       -7.357792   -1.651989    0.514971
     58          1           0       -7.338740   -1.976819    1.566515
     59          1           0       -8.214447   -0.971066    0.397406
     60          1           0       -7.547108   -2.526734   -0.124463
     61          6           0       -4.793362   -3.838791   -0.941939
     62          1           0       -3.877562   -3.601031   -1.504981
     63          1           0       -4.815096   -4.926341   -0.767831
     64          1           0       -5.656215   -3.581024   -1.575954
 ---------------------------------------------------------------------
 Rotational constants (GHZ):           0.1407209           0.0845160           0.0587368
 Leave Link  202 at Thu Jun 10 22:57:34 2021, MaxMem=   134217728 cpu:               0.2 elap:               0.0
 (Enter /APL/ISV/x86_64/gaussian/16/C.01/g16/l301.exe)
 Standard basis: CC-pVDZ (5D, 7F)
 Ernie: Thresh=  0.10000D-02 Tol=  0.10000D-05 Strict=F.
 Ernie:  66 primitive shells out of 881 were deleted.
 There are   650 symmetry adapted cartesian basis functions of A   symmetry.
 There are   617 symmetry adapted basis functions of A   symmetry.
   617 basis functions,  1306 primitive gaussians,   650 cartesian basis functions
   118 alpha electrons      118 beta electrons
       nuclear repulsion energy      3293.3957800583 Hartrees.
 IExCor=  402 DFT=T Ex+Corr=B3LYP ExCW=0 ScaHFX=  0.200000
 ScaDFX=  0.800000  0.720000  1.000000  0.810000 ScalE2=  1.000000  1.000000
 IRadAn=      5 IRanWt=     -1 IRanGd=            0 ICorTp=0 IEmpDi=  4
 NAtoms=   64 NActive=   64 NUniq=   64 SFac= 1.00D+00 NAtFMM=   60 NAOKFM=T Big=T
 Integral buffers will be    131072 words long.
 Regular integral format.
 Two-electron integral symmetry is turned on.
 Leave Link  301 at Thu Jun 10 22:57:34 2021, MaxMem=   134217728 cpu:               0.8 elap:               0.1
 (Enter /APL/ISV/x86_64/gaussian/16/C.01/g16/l302.exe)
 NPDir=0 NMtPBC=     1 NCelOv=     1 NCel=       1 NClECP=     1 NCelD=      1
         NCelK=      1 NCelE2=     1 NClLst=     1 CellRange=     0.0.
 One-electron integrals computed using PRISM.
 One-electron integral symmetry used in STVInt
 NBasis=   617 RedAO= T EigKep=  1.67D-04  NBF=   617
 NBsUse=   617 1.00D-06 EigRej= -1.00D+00 NBFU=   617
 Precomputing XC quadrature grid using
 IXCGrd= 4 IRadAn=           5 IRanWt=          -1 IRanGd=           0 AccXCQ= 0.00D+00.
 Generated NRdTot=       0 NPtTot=           0 NUsed=           0 NTot=          32
 NSgBfM=   638   638   638   638   638 MxSgAt=    64 MxSgA2=    64.
 Leave Link  302 at Thu Jun 10 22:57:35 2021, MaxMem=   134217728 cpu:              13.8 elap:               0.9
 (Enter /APL/ISV/x86_64/gaussian/16/C.01/g16/l303.exe)
 DipDrv:  MaxL=1.
 Leave Link  303 at Thu Jun 10 22:57:35 2021, MaxMem=   134217728 cpu:               1.6 elap:               0.1
 (Enter /APL/ISV/x86_64/gaussian/16/C.01/g16/l308.exe)
 Leave Link  308 at Thu Jun 10 22:57:35 2021, MaxMem=   134217728 cpu:               2.2 elap:               0.2
 (Enter /APL/ISV/x86_64/gaussian/16/C.01/g16/l401.exe)
 Initial guess from the checkpoint file:  "rhodamine2_tddft.chk"
 B after Tr=    -0.000000    0.000000   -0.000000
         Rot=    1.000000    0.000000    0.000000    0.000000 Ang=   0.00 deg.
 Guess basis will be translated and rotated to current coordinates.
 JPrj=2 DoOrth=T DoCkMO=T.
 Leave Link  401 at Thu Jun 10 22:57:36 2021, MaxMem=   134217728 cpu:               8.6 elap:               0.6
 (Enter /APL/ISV/x86_64/gaussian/16/C.01/g16/l502.exe)
 Integral symmetry usage will be decided dynamically.
 Closed shell SCF:
 Using DIIS extrapolation, IDIIS=  1040.
 NGot=   134217728 LenX=   133353898 LenY=   132930748
 Requested convergence on RMS density matrix=1.00D-08 within 128 cycles.
 Requested convergence on MAX density matrix=1.00D-06.
 Requested convergence on             energy=1.00D-06.
 No special actions if energy rises.
 Fock matrices will be formed incrementally for  20 cycles.

 Cycle   1  Pass 1  IDiag  1:
 FoFJK:  IHMeth= 1 ICntrl=       0 DoSepK=F KAlg= 0 I1Cent=           0 FoldK=F
 IRaf= 990000000 NMat=       1 IRICut=       1 DoRegI=T DoRafI=F ISym2E= 0 IDoP0=0 IntGTp=1.
 FoFCou: FMM=T IPFlag=           0 FMFlag=      100000 FMFlg1=        2001
         NFxFlg=           0 DoJE=F BraDBF=F KetDBF=F FulRan=T
         wScrn=  0.000000 ICntrl=         0 IOpCl=  0 I1Cent=           0 NGrid=           0
         NMat0=    1 NMatS0=      1 NMatT0=    0 NMatD0=    1 NMtDS0=    0 NMtDT0=    0
 Symmetry not used in FoFCou.
 FMM levels:  10  Number of levels for PrismC:   9
 E= -1420.73821901315    
 DIIS: error= 4.00D-08 at cycle   1 NSaved=   1.
 NSaved= 1 IEnMin= 1 EnMin= -1420.73821901315     IErMin= 1 ErrMin= 4.00D-08
 ErrMax= 4.00D-08  0.00D+00 EMaxC= 1.00D-01 BMatC= 9.49D-13 BMatP= 9.49D-13
 IDIUse=1 WtCom= 1.00D+00 WtEn= 0.00D+00
 Coeff-Com:  0.100D+01
 Coeff:      0.100D+01
 Gap=     0.104 Goal=   None    Shift=    0.000
 RMSDP=5.45D-09 MaxDP=3.98D-07              OVMax= 7.51D-07

 SCF Done:  E(RB3LYP) =  -1420.73821901     A.U. after    1 cycles
            NFock=  1  Conv=0.54D-08     -V/T= 2.0070
 KE= 1.410811017279D+03 PE=-9.862922101926D+03 EE= 3.737977085576D+03
 Leave Link  502 at Thu Jun 10 22:57:46 2021, MaxMem=   134217728 cpu:             165.7 elap:              10.4
 (Enter /APL/ISV/x86_64/gaussian/16/C.01/g16/l801.exe)
 DoSCS=F DFT=T ScalE2(SS,OS)=  1.000000  1.000000
 ExpMin= 1.22D-01 ExpMax= 1.17D+04 ExpMxC= 4.01D+02 IAcc=3 IRadAn=         5 AccDes= 0.00D+00
 HarFok:  IExCor=  205 AccDes= 0.00D+00 IRadAn=         5 IDoV=-2 UseB2=F ITyADJ=14
 ICtDFT= 12500011 ScaDFX=  1.000000  1.000000  1.000000  1.000000
 GSVD:  LWork=       -1353 too small for GESVD, short by        5940 words or        5940 for optimal perf.
 Largest valence mixing into a core orbital is  3.98D-05
 Largest core mixing into a valence orbital is  2.49D-05
 Range of M.O.s used for correlation:    34   617
 NBasis=   617 NAE=   118 NBE=   118 NFC=    33 NFV=     0
 NROrb=    584 NOA=    85 NOB=    85 NVA=   499 NVB=   499

 **** Warning!!: The largest alpha MO coefficient is  0.10964213D+02

 Leave Link  801 at Thu Jun 10 22:57:47 2021, MaxMem=   134217728 cpu:               2.4 elap:               0.2
 (Enter /APL/ISV/x86_64/gaussian/16/C.01/g16/l914.exe)
 RHF ground state
 Two-electron integrals replicated using symmetry.
 MDV=   134217728 DFT=T DoStab=F Mixed=T DoRPA=T DoScal=F NonHer=T
 Making orbital integer symmetry assigments:
 Orbital symmetries:
       Occupied  (A) (A) (A) (A) (A) (A) (A) (A) (A) (A) (A) (A)
                 (A) (A) (A) (A) (A) (A) (A) (A) (A) (A) (A) (A)
                 (A) (A) (A) (A) (A) (A) (A) (A) (A) (A) (A) (A)
                 (A) (A) (A) (A) (A) (A) (A) (A) (A) (A) (A) (A)
                 (A) (A) (A) (A) (A) (A) (A) (A) (A) (A) (A) (A)
                 (A) (A) (A) (A) (A) (A) (A) (A) (A) (A) (A) (A)
                 (A) (A) (A) (A) (A) (A) (A) (A) (A) (A) (A) (A)
                 (A) (A) (A) (A) (A) (A) (A) (A) (A) (A) (A) (A)
                 (A) (A) (A) (A) (A) (A) (A) (A) (A) (A) (A) (A)
                 (A) (A) (A) (A) (A) (A) (A) (A) (A) (A)
       Virtual   (A) (A) (A) (A) (A) (A) (A) (A) (A) (A) (A) (A)
                 (A) (A) (A) (A) (A) (A) (A) (A) (A) (A) (A) (A)
                 (A) (A) (A) (A) (A) (A) (A) (A) (A) (A) (A) (A)
                 (A) (A) (A) (A) (A) (A) (A) (A) (A) (A) (A) (A)
                 (A) (A) (A) (A) (A) (A) (A) (A) (A) (A) (A) (A)
                 (A) (A) (A) (A) (A) (A) (A) (A) (A) (A) (A) (A)
                 (A) (A) (A) (A) (A) (A) (A) (A) (A) (A) (A) (A)
                 (A) (A) (A) (A) (A) (A) (A) (A) (A) (A) (A) (A)
                 (A) (A) (A) (A) (A) (A) (A) (A) (A) (A) (A) (A)
                 (A) (A) (A) (A) (A) (A) (A) (A) (A) (A) (A) (A)
                 (A) (A) (A) (A) (A) (A) (A) (A) (A) (A) (A) (A)
                 (A) (A) (A) (A) (A) (A) (A) (A) (A) (A) (A) (A)
                 (A) (A) (A) (A) (A) (A) (A) (A) (A) (A) (A) (A)
                 (A) (A) (A) (A) (A) (A) (A) (A) (A) (A) (A) (A)
                 (A) (A) (A) (A) (A) (A) (A) (A) (A) (A) (A) (A)
                 (A) (A) (A) (A) (A) (A) (A) (A) (A) (A) (A) (A)
                 (A) (A) (A) (A) (A) (A) (A) (A) (A) (A) (A) (A)
                 (A) (A) (A) (A) (A) (A) (A) (A) (A) (A) (A) (A)
                 (A) (A) (A) (A) (A) (A) (A) (A) (A) (A) (A) (A)
                 (A) (A) (A) (A) (A) (A) (A) (A) (A) (A) (A) (A)
                 (A) (A) (A) (A) (A) (A) (A) (A) (A) (A) (A) (A)
                 (A) (A) (A) (A) (A) (A) (A) (A) (A) (A) (A) (A)
                 (A) (A) (A) (A) (A) (A) (A) (A) (A) (A) (A) (A)
                 (A) (A) (A) (A) (A) (A) (A) (A) (A) (A) (A) (A)
                 (A) (A) (A) (A) (A) (A) (A) (A) (A) (A) (A) (A)
                 (A) (A) (A) (A) (A) (A) (A) (A) (A) (A) (A) (A)
                 (A) (A) (A) (A) (A) (A) (A) (A) (A) (A) (A) (A)
                 (A) (A) (A) (A) (A) (A) (A) (A) (A) (A) (A) (A)
                 (A) (A) (A) (A) (A) (A) (A) (A) (A) (A) (A) (A)
                 (A) (A) (A) (A) (A) (A) (A) (A) (A) (A) (A) (A)
                 (A) (A) (A) (A) (A) (A) (A) (A) (A) (A) (A) (A)
                 (A) (A) (A) (A) (A) (A) (A) (A) (A) (A) (A) (A)
                 (A) (A) (A) (A) (A) (A) (A) (A) (A) (A) (A) (A)
                 (A) (A) (A) (A) (A) (A) (A) (A) (A) (A) (A) (A)
                 (A) (A) (A) (A) (A) (A) (A) (A) (A) (A) (A) (A)
                 (A) (A) (A) (A) (A) (A) (A) (A) (A) (A) (A) (A)
                 (A) (A) (A) (A) (A) (A) (A) (A) (A) (A) (A) (A)
                 (A) (A) (A) (A) (A) (A) (A) (A) (A) (A) (A) (A)
                 (A) (A) (A) (A) (A) (A) (A) (A) (A) (A) (A) (A)
                 (A) (A) (A) (A) (A) (A) (A) (A) (A) (A) (A) (A)
                 (A) (A) (A) (A) (A) (A) (A) (A) (A) (A) (A) (A)
                 (A) (A) (A) (A) (A) (A) (A)
    12 initial guesses have been made.
 Convergence on wavefunction:    0.001000000000000
 Davidson Disk Diagonalization:  ConvIn= 1.00D-03 SkipCon=T Conv= 1.00D-03.
 Max sub-space:  2000 roots to seek:    12 dimension of matrix:        84830
 Iteration     1 Dimension    12 NMult     0 NNew     12
 CISAX will form     6 AO SS matrices at one time.
 NMat=     6 NSing=     6 JSym2X= 0.
 FoFJK:  IHMeth= 1 ICntrl=       0 DoSepK=F KAlg= 0 I1Cent=           0 FoldK=F
 IRaf= 990000000 NMat=      12 IRICut=       1 DoRegI=T DoRafI=F ISym2E= 0 IDoP0=0 IntGTp=1.
 FoFCou: FMM=T IPFlag=           0 FMFlag=      100000 FMFlg1=        2001
         NFxFlg=           0 DoJE=F BraDBF=F KetDBF=F FulRan=T
         wScrn=  0.000000 ICntrl=         0 IOpCl=  0 I1Cent=           0 NGrid=           0
         NMat0=   12 NMatS0=      6 NMatT0=    0 NMatD0=   12 NMtDS0=    0 NMtDT0=    0
 Symmetry not used in FoFCou.
 FMM levels:  10  Number of levels for PrismC:   9
 NMat=     6 NSing=     6 JSym2X= 0.
 New state      3 was old state      4
 Excitation Energies [eV] at current iteration:
 Root      1 :     3.295223797853708
 Root      2 :     3.464282543790314
 Root      3 :     3.588368693101654
 Root      4 :     3.677753818206514
 Root      5 :     3.803025635186143
 Root      6 :     3.947648255638986
 Root      7 :     4.219252091331887
 Root      8 :     4.532708897758546
 Root      9 :     4.624074350502275
 Root     10 :     4.640424691684056
 Root     11 :     4.945282411462467
 Root     12 :     5.986353646690928
 Iteration     2 Dimension    18 NMult    12 NNew      6
 CISAX will form     6 AO SS matrices at one time.
 NMat=     6 NSing=     6 JSym2X= 0.
 Root      1 not converged, maximum delta is    0.110179861014051
 Root      2 not converged, maximum delta is    0.066071867973986
 Root      3 not converged, maximum delta is    0.067003169864776
 Excitation Energies [eV] at current iteration:
 Root      1 :     2.745587285067112   Change is   -0.549636512786596
 Root      2 :     3.117192484009511   Change is   -0.347090059780803
 Root      3 :     3.558584361343497   Change is   -0.029784331758157
 Iteration     3 Dimension    24 NMult    18 NNew      6
 CISAX will form     6 AO SS matrices at one time.
 NMat=     6 NSing=     6 JSym2X= 0.
 Root      1 not converged, maximum delta is    0.021212276188540
 Root      2 not converged, maximum delta is    0.014393890728864
 Root      3 not converged, maximum delta is    0.007591370641826
 Excitation Energies [eV] at current iteration:
 Root      1 :     2.712405438658628   Change is   -0.033181846408483
 Root      2 :     3.100475137928664   Change is   -0.016717346080846
 Root      3 :     3.556152838853995   Change is   -0.002431522489502
 Iteration     4 Dimension    30 NMult    24 NNew      6
 CISAX will form     6 AO SS matrices at one time.
 NMat=     6 NSing=     6 JSym2X= 0.
 Root      1 not converged, maximum delta is    0.005561647866971
 Root      2 not converged, maximum delta is    0.009872615207487
 Root      3 not converged, maximum delta is    0.001610526389641
 Excitation Energies [eV] at current iteration:
 Root      1 :     2.708207533227618   Change is   -0.004197905431010
 Root      2 :     3.097480508225155   Change is   -0.002994629703509
 Root      3 :     3.555894133528421   Change is   -0.000258705325574
 Iteration     5 Dimension    36 NMult    30 NNew      6
 CISAX will form     6 AO SS matrices at one time.
 NMat=     6 NSing=     6 JSym2X= 0.
 Root      1 not converged, maximum delta is    0.001708878320374
 Root      2 not converged, maximum delta is    0.002165342474985
 Root      3 has converged.
 Excitation Energies [eV] at current iteration:
 Root      1 :     2.707814764077725   Change is   -0.000392769149893
 Root      2 :     3.097138934221400   Change is   -0.000341574003756
 Root      3 :     3.555863221874970   Change is   -0.000030911653451
 Iteration     6 Dimension    40 NMult    36 NNew      4
 CISAX will form     4 AO SS matrices at one time.
 NMat=     4 NSing=     4 JSym2X= 0.
 Root      1 has converged.
 Root      2 has converged.
 Root      3 has converged.
 Excitation Energies [eV] at current iteration:
 Root      1 :     2.707768180460815   Change is   -0.000046583616910
 Root      2 :     3.097096951619197   Change is   -0.000041982602202
 Root      3 :     3.555862283451655   Change is   -0.000000938423315
 Convergence achieved on expansion vectors.
 ***********************************************************************
 Excited states from <AA,BB:AA,BB> singles matrix:
 ***********************************************************************
 
 1PDM for each excited state written to RWF  633
 Ground to excited state transition densities written to RWF  633
 Ground to excited state transition electric dipole moments (Au):
       state          X           Y           Z        Dip. S.      Osc.
         1        -3.5905      0.1609      0.0227     12.9180      0.8570
         2        -0.1404      0.3714     -0.0220      0.1581      0.0120
         3         0.2560     -0.0570      0.0056      0.0688      0.0060
 Ground to excited state transition velocity dipole moments (Au):
       state          X           Y           Z        Dip. S.      Osc.
         1         0.3480     -0.0160     -0.0020      0.1213      0.8129
         2         0.0153     -0.0334      0.0006      0.0014      0.0079
         3        -0.0291      0.0071     -0.0007      0.0009      0.0046
 Ground to excited state transition magnetic dipole moments (Au):
       state          X           Y           Z
         1        -0.0544     -0.2366     -0.9927
         2         0.0076     -0.0523     -0.0490
         3         0.0096     -0.0304      0.2341
 Ground to excited state transition velocity quadrupole moments (Au):
       state          XX          YY          ZZ          XY          XZ          YZ
         1        -0.1217      0.1104      0.0049     -1.0812      0.0194      0.0069
         2         1.0988      0.0775     -0.0009     -0.1035      0.0114      0.0306
         3        -0.0300      0.0196      0.0066      0.1188     -0.0093     -0.0080
 <0|del|b> * <b|rxdel|0> + <0|del|b> * <b|delr+rdel|0>
 Rotatory Strengths (R) in cgs (10**-40 erg-esu-cm/Gauss)
       state          XX          YY          ZZ    R(velocity)    E-M Angle
         1        29.1354    -59.3513    -63.5104    -31.2421       92.12
         2         6.3160      1.9157      3.1542      3.7953       46.23
         3        -1.1165     -0.3549     -2.1443     -1.2052       95.42
 1/2[<0|r|b>*<b|rxdel|0> + (<0|rxdel|b>*<b|r|0>)*]
 Rotatory Strengths (R) in cgs (10**-40 erg-esu-cm/Gauss)
       state          XX          YY          ZZ     R(length)
         1      -138.2368     26.9272     15.9295    -31.7934
         2         0.7531     13.7250     -0.7633      4.5716
         3        -1.7297     -1.2253     -0.9234     -1.2928
  1/2[<0|del|b>*<b|r|0> + (<0|r|b>*<b|del|0>)*] (Au)
       state          X           Y           Z        Dip. S.   Osc.(frdel)
         1        -1.2493     -0.0026     -0.0000      1.2519      0.8346
         2        -0.0021     -0.0124     -0.0000      0.0146      0.0097
         3        -0.0074     -0.0004     -0.0000      0.0078      0.0052

 Excitation energies and oscillator strengths:
 
 Excited State   1:      Singlet-A      2.7078 eV  457.88 nm  f=0.8570  <S**2>=0.000
     118 ->119         0.70242
 This state for optimization and/or second-order correction.
 Total Energy, E(TD-HF/TD-DFT) =  -1420.63871036    
 Copying the excited state density for this state as the 1-particle RhoCI density.
 
 Excited State   2:      Singlet-A      3.0971 eV  400.32 nm  f=0.0120  <S**2>=0.000
     116 ->119        -0.19299
     117 ->119         0.67464
 
 Excited State   3:      Singlet-A      3.5559 eV  348.68 nm  f=0.0060  <S**2>=0.000
     114 ->119        -0.35231
     115 ->119         0.60662
 SavETr:  write IOETrn=   770 NScale= 10 NData=  16 NLR=1 NState=    3 LETran=      64.
 Leave Link  914 at Thu Jun 10 23:03:04 2021, MaxMem=   134217728 cpu:            5066.5 elap:             316.9
 (Enter /APL/ISV/x86_64/gaussian/16/C.01/g16/l601.exe)
 Copying SCF densities to generalized density rwf, IOpCl= 0 IROHF=0.

 **********************************************************************

            Population analysis using the SCF Density.

 **********************************************************************

 Orbital symmetries:
       Occupied  (A) (A) (A) (A) (A) (A) (A) (A) (A) (A) (A) (A)
                 (A) (A) (A) (A) (A) (A) (A) (A) (A) (A) (A) (A)
                 (A) (A) (A) (A) (A) (A) (A) (A) (A) (A) (A) (A)
                 (A) (A) (A) (A) (A) (A) (A) (A) (A) (A) (A) (A)
                 (A) (A) (A) (A) (A) (A) (A) (A) (A) (A) (A) (A)
                 (A) (A) (A) (A) (A) (A) (A) (A) (A) (A) (A) (A)
                 (A) (A) (A) (A) (A) (A) (A) (A) (A) (A) (A) (A)
                 (A) (A) (A) (A) (A) (A) (A) (A) (A) (A) (A) (A)
                 (A) (A) (A) (A) (A) (A) (A) (A) (A) (A) (A) (A)
                 (A) (A) (A) (A) (A) (A) (A) (A) (A) (A)
       Virtual   (A) (A) (A) (A) (A) (A) (A) (A) (A) (A) (A) (A)
                 (A) (A) (A) (A) (A) (A) (A) (A) (A) (A) (A) (A)
                 (A) (A) (A) (A) (A) (A) (A) (A) (A) (A) (A) (A)
                 (A) (A) (A) (A) (A) (A) (A) (A) (A) (A) (A) (A)
                 (A) (A) (A) (A) (A) (A) (A) (A) (A) (A) (A) (A)
                 (A) (A) (A) (A) (A) (A) (A) (A) (A) (A) (A) (A)
                 (A) (A) (A) (A) (A) (A) (A) (A) (A) (A) (A) (A)
                 (A) (A) (A) (A) (A) (A) (A) (A) (A) (A) (A) (A)
                 (A) (A) (A) (A) (A) (A) (A) (A) (A) (A) (A) (A)
                 (A) (A) (A) (A) (A) (A) (A) (A) (A) (A) (A) (A)
                 (A) (A) (A) (A) (A) (A) (A) (A) (A) (A) (A) (A)
                 (A) (A) (A) (A) (A) (A) (A) (A) (A) (A) (A) (A)
                 (A) (A) (A) (A) (A) (A) (A) (A) (A) (A) (A) (A)
                 (A) (A) (A) (A) (A) (A) (A) (A) (A) (A) (A) (A)
                 (A) (A) (A) (A) (A) (A) (A) (A) (A) (A) (A) (A)
                 (A) (A) (A) (A) (A) (A) (A) (A) (A) (A) (A) (A)
                 (A) (A) (A) (A) (A) (A) (A) (A) (A) (A) (A) (A)
                 (A) (A) (A) (A) (A) (A) (A) (A) (A) (A) (A) (A)
                 (A) (A) (A) (A) (A) (A) (A) (A) (A) (A) (A) (A)
                 (A) (A) (A) (A) (A) (A) (A) (A) (A) (A) (A) (A)
                 (A) (A) (A) (A) (A) (A) (A) (A) (A) (A) (A) (A)
                 (A) (A) (A) (A) (A) (A) (A) (A) (A) (A) (A) (A)
                 (A) (A) (A) (A) (A) (A) (A) (A) (A) (A) (A) (A)
                 (A) (A) (A) (A) (A) (A) (A) (A) (A) (A) (A) (A)
                 (A) (A) (A) (A) (A) (A) (A) (A) (A) (A) (A) (A)
                 (A) (A) (A) (A) (A) (A) (A) (A) (A) (A) (A) (A)
                 (A) (A) (A) (A) (A) (A) (A) (A) (A) (A) (A) (A)
                 (A) (A) (A) (A) (A) (A) (A) (A) (A) (A) (A) (A)
                 (A) (A) (A) (A) (A) (A) (A) (A) (A) (A) (A) (A)
                 (A) (A) (A) (A) (A) (A) (A) (A) (A) (A) (A) (A)
                 (A) (A) (A) (A) (A) (A) (A) (A) (A) (A) (A) (A)
                 (A) (A) (A) (A) (A) (A) (A) (A) (A) (A) (A) (A)
                 (A) (A) (A) (A) (A) (A) (A) (A) (A) (A) (A) (A)
                 (A) (A) (A) (A) (A) (A) (A) (A) (A) (A) (A) (A)
                 (A) (A) (A) (A) (A) (A) (A) (A) (A) (A) (A) (A)
                 (A) (A) (A) (A) (A) (A) (A) (A) (A) (A) (A) (A)
                 (A) (A) (A) (A) (A) (A) (A) (A) (A) (A) (A) (A)
                 (A) (A) (A) (A) (A) (A) (A) (A) (A) (A) (A) (A)
                 (A) (A) (A) (A) (A) (A) (A) (A) (A) (A) (A) (A)
                 (A) (A) (A) (A) (A) (A) (A) (A) (A) (A) (A) (A)
                 (A) (A) (A) (A) (A) (A) (A) (A) (A) (A) (A) (A)
                 (A) (A) (A) (A) (A) (A) (A)
 The electronic state is 1-A.
 Alpha  occ. eigenvalues --  -19.32720 -19.27819 -19.21757 -14.47593 -14.47420
 Alpha  occ. eigenvalues --  -10.40938 -10.38148 -10.38022 -10.36296 -10.36013
 Alpha  occ. eigenvalues --  -10.34940 -10.32807 -10.32802 -10.32792 -10.32408
 Alpha  occ. eigenvalues --  -10.31908 -10.31698 -10.31637 -10.31327 -10.31224
 Alpha  occ. eigenvalues --  -10.30921 -10.30428 -10.30242 -10.29961 -10.29902
 Alpha  occ. eigenvalues --  -10.29839 -10.29731 -10.29273 -10.29132 -10.28234
 Alpha  occ. eigenvalues --  -10.28019 -10.27911 -10.27840  -1.23043  -1.19683
 Alpha  occ. eigenvalues --   -1.10495  -1.07388  -1.07000  -0.99201  -0.97774
 Alpha  occ. eigenvalues --   -0.96178  -0.92277  -0.89599  -0.87981  -0.87722
 Alpha  occ. eigenvalues --   -0.87081  -0.86854  -0.86171  -0.85066  -0.84059
 Alpha  occ. eigenvalues --   -0.82179  -0.77955  -0.77263  -0.76123  -0.75079
 Alpha  occ. eigenvalues --   -0.74663  -0.73755  -0.72347  -0.71187  -0.70118
 Alpha  occ. eigenvalues --   -0.69499  -0.68237  -0.65561  -0.65186  -0.63921
 Alpha  occ. eigenvalues --   -0.62017  -0.61711  -0.61340  -0.60353  -0.59351
 Alpha  occ. eigenvalues --   -0.58882  -0.58256  -0.57577  -0.57085  -0.56870
 Alpha  occ. eigenvalues --   -0.55924  -0.55654  -0.55486  -0.54966  -0.54232
 Alpha  occ. eigenvalues --   -0.53980  -0.53667  -0.53465  -0.53131  -0.52581
 Alpha  occ. eigenvalues --   -0.52269  -0.52110  -0.51406  -0.50006  -0.49827
 Alpha  occ. eigenvalues --   -0.49615  -0.48957  -0.48735  -0.48178  -0.47992
 Alpha  occ. eigenvalues --   -0.47823  -0.47531  -0.47419  -0.46899  -0.46590
 Alpha  occ. eigenvalues --   -0.46258  -0.45976  -0.45316  -0.45089  -0.44863
 Alpha  occ. eigenvalues --   -0.44722  -0.44321  -0.43577  -0.42888  -0.41090
 Alpha  occ. eigenvalues --   -0.40553  -0.38186  -0.36702  -0.36043  -0.35755
 Alpha  occ. eigenvalues --   -0.35629  -0.33250  -0.30437
 Alpha virt. eigenvalues --   -0.20086  -0.14675  -0.12727  -0.11361  -0.11048
 Alpha virt. eigenvalues --   -0.10957  -0.05738  -0.04694  -0.04525  -0.03799
 Alpha virt. eigenvalues --   -0.02907  -0.02147  -0.01940  -0.01704  -0.01458
 Alpha virt. eigenvalues --   -0.01357  -0.00290   0.00049   0.00317   0.01234
 Alpha virt. eigenvalues --    0.01833   0.02012   0.02564   0.02882   0.03229
 Alpha virt. eigenvalues --    0.03436   0.03552   0.03877   0.04115   0.04513
 Alpha virt. eigenvalues --    0.04780   0.05003   0.05289   0.05718   0.05930
 Alpha virt. eigenvalues --    0.06139   0.06636   0.06763   0.06930   0.07024
 Alpha virt. eigenvalues --    0.07724   0.07832   0.08196   0.09029   0.09421
 Alpha virt. eigenvalues --    0.09765   0.09988   0.10629   0.12757   0.12832
 Alpha virt. eigenvalues --    0.13418   0.13860   0.14584   0.15106   0.15382
 Alpha virt. eigenvalues --    0.15458   0.15883   0.16928   0.19043   0.19498
 Alpha virt. eigenvalues --    0.20092   0.20748   0.21350   0.22371   0.22491
 Alpha virt. eigenvalues --    0.22838   0.25190   0.25923   0.26523   0.27405
 Alpha virt. eigenvalues --    0.27649   0.28359   0.28784   0.29351   0.29895
 Alpha virt. eigenvalues --    0.30824   0.31231   0.32134   0.32410   0.32589
 Alpha virt. eigenvalues --    0.33207   0.33344   0.34033   0.34249   0.34294
 Alpha virt. eigenvalues --    0.34610   0.35560   0.35774   0.35909   0.36729
 Alpha virt. eigenvalues --    0.36914   0.37220   0.37393   0.37940   0.38434
 Alpha virt. eigenvalues --    0.38709   0.38844   0.39310   0.39607   0.40040
 Alpha virt. eigenvalues --    0.40310   0.40450   0.40834   0.40903   0.41216
 Alpha virt. eigenvalues --    0.41726   0.41927   0.42578   0.42949   0.43305
 Alpha virt. eigenvalues --    0.44114   0.44358   0.45040   0.45351   0.46218
 Alpha virt. eigenvalues --    0.47048   0.47529   0.47740   0.48003   0.48213
 Alpha virt. eigenvalues --    0.48654   0.49291   0.49724   0.50420   0.50585
 Alpha virt. eigenvalues --    0.51143   0.51309   0.51729   0.51937   0.52750
 Alpha virt. eigenvalues --    0.52872   0.53495   0.53864   0.54242   0.54365
 Alpha virt. eigenvalues --    0.54584   0.55049   0.55246   0.55438   0.55595
 Alpha virt. eigenvalues --    0.55737   0.56037   0.56100   0.56462   0.56752
 Alpha virt. eigenvalues --    0.56803   0.57081   0.57576   0.57955   0.58597
 Alpha virt. eigenvalues --    0.58811   0.59028   0.59862   0.60233   0.60918
 Alpha virt. eigenvalues --    0.61221   0.61257   0.61564   0.61908   0.62106
 Alpha virt. eigenvalues --    0.62505   0.62943   0.63404   0.63867   0.64260
 Alpha virt. eigenvalues --    0.64410   0.64832   0.65556   0.66384   0.68033
 Alpha virt. eigenvalues --    0.68861   0.69318   0.69809   0.71058   0.71656
 Alpha virt. eigenvalues --    0.72513   0.73206   0.73658   0.74276   0.75044
 Alpha virt. eigenvalues --    0.76644   0.77065   0.77262   0.77419   0.77847
 Alpha virt. eigenvalues --    0.78147   0.78421   0.79708   0.80637   0.80945
 Alpha virt. eigenvalues --    0.81298   0.81564   0.82006   0.82675   0.83469
 Alpha virt. eigenvalues --    0.84142   0.84830   0.85762   0.86881   0.87029
 Alpha virt. eigenvalues --    0.87123   0.87727   0.88045   0.88738   0.89166
 Alpha virt. eigenvalues --    0.89830   0.90210   0.90662   0.90876   0.92149
 Alpha virt. eigenvalues --    0.92534   0.93761   0.93946   0.94305   0.94866
 Alpha virt. eigenvalues --    0.95353   0.95781   0.95843   0.96099   0.98392
 Alpha virt. eigenvalues --    0.98747   0.99458   0.99739   1.00280   1.01551
 Alpha virt. eigenvalues --    1.02324   1.03188   1.03452   1.05184   1.05703
 Alpha virt. eigenvalues --    1.06611   1.07135   1.07952   1.08143   1.08380
 Alpha virt. eigenvalues --    1.09059   1.09827   1.11481   1.12099   1.12458
 Alpha virt. eigenvalues --    1.12826   1.13764   1.13964   1.15046   1.15473
 Alpha virt. eigenvalues --    1.16016   1.17320   1.20087   1.20924   1.22212
 Alpha virt. eigenvalues --    1.22997   1.24474   1.26103   1.26302   1.26353
 Alpha virt. eigenvalues --    1.27356   1.28374   1.29037   1.29150   1.30463
 Alpha virt. eigenvalues --    1.30976   1.31791   1.31932   1.32592   1.33008
 Alpha virt. eigenvalues --    1.33299   1.33628   1.33801   1.34070   1.35189
 Alpha virt. eigenvalues --    1.35939   1.36810   1.37071   1.37342   1.37605
 Alpha virt. eigenvalues --    1.37765   1.38344   1.39296   1.39685   1.39885
 Alpha virt. eigenvalues --    1.40283   1.40817   1.41486   1.42900   1.44116
 Alpha virt. eigenvalues --    1.45227   1.45543   1.46617   1.46953   1.47252
 Alpha virt. eigenvalues --    1.47431   1.47807   1.48405   1.49167   1.49354
 Alpha virt. eigenvalues --    1.49747   1.50063   1.50323   1.50517   1.51239
 Alpha virt. eigenvalues --    1.51547   1.51795   1.52164   1.52607   1.52875
 Alpha virt. eigenvalues --    1.53110   1.53847   1.53990   1.54469   1.54718
 Alpha virt. eigenvalues --    1.54930   1.55214   1.55424   1.55720   1.56147
 Alpha virt. eigenvalues --    1.56503   1.56895   1.57098   1.57500   1.58068
 Alpha virt. eigenvalues --    1.58258   1.58536   1.58720   1.59183   1.59517
 Alpha virt. eigenvalues --    1.59900   1.60381   1.60637   1.61085   1.61292
 Alpha virt. eigenvalues --    1.62150   1.62422   1.62656   1.63132   1.63201
 Alpha virt. eigenvalues --    1.63968   1.64267   1.64480   1.64979   1.65237
 Alpha virt. eigenvalues --    1.65516   1.66134   1.66452   1.66962   1.67517
 Alpha virt. eigenvalues --    1.67525   1.67751   1.68521   1.68711   1.69565
 Alpha virt. eigenvalues --    1.70451   1.70970   1.71818   1.72260   1.72486
 Alpha virt. eigenvalues --    1.72722   1.73934   1.74408   1.74887   1.75510
 Alpha virt. eigenvalues --    1.76614   1.76805   1.76967   1.77757   1.78509
 Alpha virt. eigenvalues --    1.79523   1.80025   1.80330   1.81849   1.82625
 Alpha virt. eigenvalues --    1.83415   1.84466   1.84739   1.85524   1.85552
 Alpha virt. eigenvalues --    1.86372   1.87206   1.87830   1.88532   1.89027
 Alpha virt. eigenvalues --    1.89239   1.90492   1.90690   1.91294   1.92607
 Alpha virt. eigenvalues --    1.93029   1.93595   1.94322   1.95144   1.95400
 Alpha virt. eigenvalues --    1.96226   1.97662   1.98197   1.98462   1.98807
 Alpha virt. eigenvalues --    1.99337   1.99994   2.00559   2.00887   2.01813
 Alpha virt. eigenvalues --    2.02990   2.03851   2.04520   2.05788   2.06657
 Alpha virt. eigenvalues --    2.07784   2.07928   2.08491   2.09923   2.11113
 Alpha virt. eigenvalues --    2.11552   2.12169   2.12509   2.12813   2.13364
 Alpha virt. eigenvalues --    2.13666   2.14492   2.15143   2.15711   2.16213
 Alpha virt. eigenvalues --    2.17508   2.18214   2.18890   2.19988   2.21621
 Alpha virt. eigenvalues --    2.22954   2.23530   2.23876   2.24789   2.25227
 Alpha virt. eigenvalues --    2.25706   2.27185   2.29322   2.31774   2.31994
 Alpha virt. eigenvalues --    2.32331   2.32463   2.33112   2.33368   2.34041
 Alpha virt. eigenvalues --    2.34580   2.35769   2.36281   2.37597   2.39242
 Alpha virt. eigenvalues --    2.39956   2.40696   2.42363   2.42736   2.42985
 Alpha virt. eigenvalues --    2.43128   2.43886   2.44807   2.46392   2.46872
 Alpha virt. eigenvalues --    2.47616   2.48548   2.49835   2.50689   2.52110
 Alpha virt. eigenvalues --    2.52537   2.53052   2.54079   2.56466   2.57839
 Alpha virt. eigenvalues --    2.58371   2.59965   2.60127   2.62676   2.63049
 Alpha virt. eigenvalues --    2.64601   2.66677   2.66872   2.67404   2.68122
 Alpha virt. eigenvalues --    2.70818   2.71357   2.71585   2.73852   2.75546
 Alpha virt. eigenvalues --    2.78575   2.80227   2.81289   2.82149   2.86428
 Alpha virt. eigenvalues --    2.94648   2.96351   3.02681   3.04987   3.05006
 Alpha virt. eigenvalues --    3.14010   3.17612   3.29629   3.32105   3.39917
 Alpha virt. eigenvalues --    3.47436   3.52789   3.54465   3.65528
          Condensed to atoms (all electrons):
 Mulliken charges:
               1
     1  C    0.223122
     2  C   -0.024198
     3  C    0.108708
     4  C    0.006506
     5  C    0.002237
     6  C    0.016237
     7  C    0.221095
     8  C    0.004037
     9  C    0.112687
    10  C   -0.025665
    11  H   -0.011134
    12  C    0.204364
    13  C    0.027198
    14  C    0.010100
    15  H   -0.012625
    16  H   -0.004301
    17  H   -0.008856
    18  H   -0.003660
    19  H   -0.004307
    20  C   -0.082554
    21  C   -0.047527
    22  C    0.047647
    23  C    0.078687
    24  C    0.058230
    25  H   -0.027505
    26  C    0.056654
    27  H   -0.000924
    28  H    0.000418
    29  H    0.001499
    30  O   -0.209516
    31  N   -0.293483
    32  N   -0.261962
    33  C    0.155061
    34  O   -0.207794
    35  O   -0.173369
    36  H    0.159588
    37  C    0.037149
    38  H    0.035163
    39  H    0.041804
    40  C   -0.015440
    41  H    0.034450
    42  H    0.037934
    43  H    0.046866
    44  C    0.041089
    45  H    0.040680
    46  H    0.034164
    47  C   -0.015073
    48  H    0.045544
    49  H    0.033352
    50  H    0.038623
    51  C    0.046799
    52  H    0.032470
    53  H    0.037841
    54  C    0.028540
    55  H    0.053809
    56  H    0.043167
    57  C   -0.016337
    58  H    0.052555
    59  H    0.046693
    60  H    0.046071
    61  C   -0.016017
    62  H    0.031364
    63  H    0.044695
    64  H    0.037353
 Sum of Mulliken charges =   1.00000
 Mulliken charges with hydrogens summed into heavy atoms:
               1
     1  C    0.223122
     2  C   -0.036823
     3  C    0.108708
     4  C    0.006506
     5  C   -0.002063
     6  C    0.007380
     7  C    0.221095
     8  C    0.004037
     9  C    0.112687
    10  C   -0.036800
    12  C    0.204364
    13  C    0.023538
    14  C    0.005793
    20  C   -0.082554
    21  C   -0.047527
    22  C    0.020142
    23  C    0.077762
    24  C    0.058648
    26  C    0.058152
    30  O   -0.209516
    31  N   -0.293483
    32  N   -0.261962
    33  C    0.155061
    34  O   -0.207794
    35  O   -0.013781
    37  C    0.114117
    40  C    0.103809
    44  C    0.115933
    47  C    0.102445
    51  C    0.117110
    54  C    0.125516
    57  C    0.128983
    61  C    0.097395
 Electronic spatial extent (au):  <R**2>=          18559.0692
 Charge=              1.0000 electrons
 Dipole moment (field-independent basis, Debye):
    X=             -0.2197    Y=             -4.7021    Z=             -1.6020  Tot=              4.9724
 Quadrupole moment (field-independent basis, Debye-Ang):
   XX=            -74.4507   YY=           -148.8597   ZZ=           -185.4950
   XY=             -3.3291   XZ=             -1.9281   YZ=            -15.7795
 Traceless Quadrupole moment (field-independent basis, Debye-Ang):
   XX=             61.8178   YY=            -12.5913   ZZ=            -49.2266
   XY=             -3.3291   XZ=             -1.9281   YZ=            -15.7795
 Octapole moment (field-independent basis, Debye-Ang**2):
  XXX=            -52.2078  YYY=            -35.3020  ZZZ=             19.0119  XYY=             21.0164
  XXY=           -216.4642  XXZ=             25.4781  XZZ=              1.0130  YZZ=              6.7798
  YYZ=            -66.3692  XYZ=             -2.8324
 Hexadecapole moment (field-independent basis, Debye-Ang**3):
 XXXX=         -10701.6407 YYYY=          -7370.4021 ZZZZ=          -1277.7144 XXXY=            -61.2524
 XXXZ=            -60.3300 YYYX=            -67.4465 YYYZ=           -374.2469 ZZZX=             -1.7672
 ZZZY=            -57.2740 XXYY=          -3255.9177 XXZZ=          -2757.0655 YYZZ=          -1628.4618
 XXYZ=             -7.6871 YYXZ=            -23.5407 ZZXY=              0.6396
 N-N= 3.293395780058D+03 E-N=-9.862922064474D+03  KE= 1.410811017279D+03
 Leave Link  601 at Thu Jun 10 23:03:04 2021, MaxMem=   134217728 cpu:               3.0 elap:               0.3
 (Enter /APL/ISV/x86_64/gaussian/16/C.01/g16/l9999.exe)
 Electronic transition elements 
                 1             2             3 
      1  -0.142064D+04 -0.142062D+04 -0.142061D+04
      2  -0.358940D+01 -0.138217D+00  0.255645D+00
      3   0.182740D+00  0.372206D+00 -0.585229D-01
      4   0.283261D-01 -0.223616D-01  0.524703D-02
      5   0.347844D+00  0.150933D-01 -0.290217D-01
      6  -0.181602D-01 -0.335137D-01  0.729287D-02
      7  -0.251806D-02  0.639910D-03 -0.706677D-03
      8  -0.575138D-01  0.718544D-02  0.975680D-02
      9  -0.237809D+00 -0.523793D-01 -0.301005D-01
     10  -0.992234D+00 -0.489688D-01  0.234133D+00
     11  -0.134742D+00  0.109756D+01 -0.286275D-01
     12   0.123513D+00  0.788748D-01  0.180864D-01
     13   0.483452D-02 -0.107578D-02  0.666433D-02
     14  -0.107962D+01 -0.109643D+00  0.119074D+00
     15   0.213663D-01  0.991284D-02 -0.946028D-02
     16   0.841899D-02  0.305381D-01 -0.814786D-02
 Unable to Open any file for archive entry.
 1\1\GINC-LEMON\SP\RB3LYP TD-FC\CC-pVDZ\C28H31N2O3(1+)\YAGI\10-Jun-2021
 \0\\#p B3LYP/cc-pVDZ TD=(singlets,root=1) geom=checkpoint guess=read\\
 rhodamine TDDFT\\1,1\C,0,-3.6528097637,-0.9501245478,0.0984349706\C,0,
 -2.4032363987,-1.6262425893,0.1571905631\C,0,-1.2208504141,-0.92659304
 93,0.0103769207\C,0,-1.1711482921,0.4795427105,-0.222090297\C,0,-2.430
 7374893,1.141643441,-0.300431781\C,0,-3.6162499886,0.4692349149,-0.153
 9716415\C,0,0.0809594291,1.1164270408,-0.357427398\C,0,1.2524013539,0.
 3360810308,-0.2771286247\C,0,1.1452026461,-1.0673422582,-0.0418758052\
 C,0,2.2431088603,-1.9013379243,0.0544161119\H,0,2.0546861764,-2.959641
 474,0.2142706916\C,0,3.5572961249,-1.3766889667,-0.0767918656\C,0,3.68
 02892019,0.0407140884,-0.3115659958\C,0,2.5780881091,0.848020137,-0.40
 53197702\H,0,-2.3281053892,-2.6982334835,0.3162082768\H,0,-2.445542501
 4,2.2155389829,-0.4876744525\H,0,-4.5406663639,1.0338738365,-0.2367946
 205\H,0,4.6646459579,0.4938069663,-0.4005938199\H,0,2.7104479463,1.916
 5602889,-0.5760259148\C,0,0.1598664474,2.5782147015,-0.6749262778\C,0,
 0.2255220027,3.6080407768,0.2928703835\C,0,0.1639127152,2.9260847943,-
 2.0360356106\C,0,0.2915314601,4.9465850327,-0.1297594012\C,0,0.2303502
 399,4.2616054303,-2.4396533426\H,0,0.1130280472,2.1351364775,-2.787097
 4928\C,0,0.2942640594,5.2773500158,-1.4825390412\H,0,0.3407981755,5.71
 6795151,0.6405725642\H,0,0.2316699891,4.5039873212,-3.5043161733\H,0,0
 .3462166334,6.3234447154,-1.7894161938\O,0,-0.0738427328,-1.6582741591
 ,0.0935482209\N,0,-4.8347801428,-1.6021867419,0.2729373267\N,0,4.65426
 11528,-2.1707758111,0.0180048482\C,0,0.2333127143,3.4028422322,1.77665
 20045\O,0,0.2797955561,4.3042474197,2.5827854088\O,0,0.184930442,2.101
 7608493,2.1505035404\H,0,0.1952072326,2.1063505397,3.1259091757\C,0,6.
 0189429716,-1.663189174,-0.2000570443\H,0,6.6079130926,-2.5017362255,-
 0.6007696966\H,0,6.00148046,-0.9045063218,-0.9951364125\C,0,6.67905499
 99,-1.1170519122,1.0677775156\H,0,6.1276633113,-0.2543568984,1.4728185
 156\H,0,6.7304166643,-1.8857591111,1.854951323\H,0,7.7078167612,-0.792
 9081046,0.8452537559\C,0,4.5524363839,-3.6013594194,0.3440995771\H,0,3
 .7401956703,-3.747799664,1.0708228442\H,0,5.4793366879,-3.8755235861,0
 .8695311034\C,0,4.3605384136,-4.4968141525,-0.8824038775\H,0,4.3241088
 997,-5.5532486868,-0.5732298231\H,0,3.4255594493,-4.2622777215,-1.4142
 216795\H,0,5.1929541679,-4.3823794361,-1.594476081\C,0,-4.8659379192,-
 3.0662412544,0.4081036928\H,0,-5.7755283008,-3.3339963865,0.9561947657
 \H,0,-4.0334447032,-3.3737068643,1.0567252135\C,0,-6.1054168281,-0.850
 8369519,0.1337779924\H,0,-6.0340541566,0.0465426026,0.7675377837\H,0,-
 6.2013693539,-0.4992331661,-0.9096228138\C,0,-7.3690229178,-1.60697769
 47,0.5285786269\H,0,-7.3502062021,-1.9302814985,1.580597338\H,0,-8.221
 728548,-0.9210571379,0.4113520308\H,0,-7.56469171,-2.4815530314,-0.109
 1745781\C,0,-4.8203003747,-3.8115529577,-0.9291084749\H,0,-3.904005472
 2,-3.5802263466,-1.4940227479\H,0,-4.8483377452,-4.8986793965,-0.75326
 20743\H,0,-5.6826188988,-3.5495453924,-1.5621112629\\Version=ES64L-G16
 RevC.01\State=1-A\HF=-1420.738219\RMSD=5.449e-09\PG=C01 [X(C28H31N2O3)
 ]\\@
 The archive entry for this job was punched.


 UNDER MOST GREENE GRASSE LY MOST GREATE SNAKES.
 -- PROVERBS AND REASONS OF THE YEAR 1585
           AS REPRINTED IN PAISLEY MAGAZINE 1828.
 Job cpu time:       0 days  1 hours 27 minutes 48.8 seconds.
 Elapsed time:       0 days  0 hours  5 minutes 30.0 seconds.
 File lengths (MBytes):  RWF=   1803 Int=      0 D2E=      0 Chk=     72 Scr=      1
 Normal termination of Gaussian 16 at Thu Jun 10 23:03:04 2021.

real	5m30.094s
user	87m45.922s
sys	0m2.893s
