 Entering Gaussian System, Link 0=g16
 Initial command:
 /APL/ISV/x86_64/gaussian/16/C.01/g16/l1.exe "/scr/yagi/job0.hlBG/Gau-10709.inp" -scrdir="/scr/yagi/job0.hlBG/"
 Entering Link 1 = /APL/ISV/x86_64/gaussian/16/C.01/g16/l1.exe PID=     10710.
  
 Copyright (c) 1988-2019, Gaussian, Inc.  All Rights Reserved.
  
 This is part of the Gaussian(R) 16 program.  It is based on
 the Gaussian(R) 09 system (copyright 2009, Gaussian, Inc.),
 the Gaussian(R) 03 system (copyright 2003, Gaussian, Inc.),
 the Gaussian(R) 98 system (copyright 1998, Gaussian, Inc.),
 the Gaussian(R) 94 system (copyright 1995, Gaussian, Inc.),
 the Gaussian 92(TM) system (copyright 1992, Gaussian, Inc.),
 the Gaussian 90(TM) system (copyright 1990, Gaussian, Inc.),
 the Gaussian 88(TM) system (copyright 1988, Gaussian, Inc.),
 the Gaussian 86(TM) system (copyright 1986, Carnegie Mellon
 University), and the Gaussian 82(TM) system (copyright 1983,
 Carnegie Mellon University). Gaussian is a federally registered
 trademark of Gaussian, Inc.
  
 This software contains proprietary and confidential information,
 including trade secrets, belonging to Gaussian, Inc.
  
 This software is provided under written license and may be
 used, copied, transmitted, or stored only in accord with that
 written license.
  
 The following legend is applicable only to US Government
 contracts under FAR:
  
                    RESTRICTED RIGHTS LEGEND
  
 Use, reproduction and disclosure by the US Government is
 subject to restrictions as set forth in subparagraphs (a)
 and (c) of the Commercial Computer Software - Restricted
 Rights clause in FAR 52.227-19.
  
 Gaussian, Inc.
 340 Quinnipiac St., Bldg. 40, Wallingford CT 06492
  
  
 ---------------------------------------------------------------
 Warning -- This program may not be used in any manner that
 competes with the business of Gaussian, Inc. or will provide
 assistance to any competitor of Gaussian, Inc.  The licensee
 of this program is prohibited from giving any competitor of
 Gaussian, Inc. access to this program.  By using this program,
 the user acknowledges that Gaussian, Inc. is engaged in the
 business of creating and licensing software in the field of
 computational chemistry and represents and warrants to the
 licensee that it is not a competitor of Gaussian, Inc. and that
 it will not use this program in any manner prohibited above.
 ---------------------------------------------------------------
  

 Cite this work as:
 Gaussian 16, Revision C.01,
 M. J. Frisch, G. W. Trucks, H. B. Schlegel, G. E. Scuseria, 
 M. A. Robb, J. R. Cheeseman, G. Scalmani, V. Barone, 
 G. A. Petersson, H. Nakatsuji, X. Li, M. Caricato, A. V. Marenich, 
 J. Bloino, B. G. Janesko, R. Gomperts, B. Mennucci, H. P. Hratchian, 
 J. V. Ortiz, A. F. Izmaylov, J. L. Sonnenberg, D. Williams-Young, 
 F. Ding, F. Lipparini, F. Egidi, J. Goings, B. Peng, A. Petrone, 
 T. Henderson, D. Ranasinghe, V. G. Zakrzewski, J. Gao, N. Rega, 
 G. Zheng, W. Liang, M. Hada, M. Ehara, K. Toyota, R. Fukuda, 
 J. Hasegawa, M. Ishida, T. Nakajima, Y. Honda, O. Kitao, H. Nakai, 
 T. Vreven, K. Throssell, J. A. Montgomery, Jr., J. E. Peralta, 
 F. Ogliaro, M. J. Bearpark, J. J. Heyd, E. N. Brothers, K. N. Kudin, 
 V. N. Staroverov, T. A. Keith, R. Kobayashi, J. Normand, 
 K. Raghavachari, A. P. Rendell, J. C. Burant, S. S. Iyengar, 
 J. Tomasi, M. Cossi, J. M. Millam, M. Klene, C. Adamo, R. Cammi, 
 J. W. Ochterski, R. L. Martin, K. Morokuma, O. Farkas, 
 J. B. Foresman, and D. J. Fox, Gaussian, Inc., Wallingford CT, 2019.
 
 ******************************************
 Gaussian 16:  ES64L-G16RevC.01  3-Jul-2019
                19-Jun-2021 
 ******************************************
 %NprocShared=16
 Will use up to   16 processors via shared memory.
 %chk=gaussian.chk
 %mem=1gb
 ----------------------------------------------------------------------
 #P B3LYP/cc-pVDZ EmpiricalDispersion=GD3 scf(conver=8) iop(4/5=100) no
 symm Charge Force Prop=(Field,Read) pop=mk
 ----------------------------------------------------------------------
 1/10=7,18=10,28=-2,30=1,38=1,125=101/1,3;
 2/12=2,15=1,17=6,18=5,29=2,40=1/2;
 3/5=16,11=2,25=1,30=1,71=1,74=-5,124=31/1,2,3;
 4/5=100/1;
 5/5=2,6=8,38=5/2;
 6/7=2,8=2,9=2,10=2,14=2,15=9,20=1,28=1/1,2;
 7/7=1,16=-2,29=1,30=1/1,2,3,16;
 1/10=7,18=10,28=-2,30=1/3;
 99/12=1/99;
 Leave Link    1 at Sat Jun 19 00:21:05 2021, MaxMem=   134217728 cpu:               0.7 elap:               0.1
 (Enter /APL/ISV/x86_64/gaussian/16/C.01/g16/l101.exe)
 --------------------------------
 Gaussian run for QMMM in genesis
 --------------------------------
 Symbolic Z-matrix:
 Charge = -1 Multiplicity = 1
 P                    -5.29937  -10.5545  -5.40828 
 O                    -5.55463  -10.5959  -3.75308 
 H                    -5.20835  -11.40333  -3.36501 
 O                    -6.12443  -9.26584  -5.78558 
 H                    -7.08001  -9.30884  -5.70144 
 O                    -3.88101  -10.2725  -5.69124 
 O                    -5.91168  -11.81219  -6.03902 
 
 ITRead=  0  0  0  0  0  0  0
 MicOpt= -1 -1 -1 -1 -1 -1 -1
 NAtoms=      7 NQM=        7 NQMF=       0 NMMI=      0 NMMIF=      0
                NMic=       0 NMicF=      0.
                    Isotopes and Nuclear Properties:
 (Nuclear quadrupole moments (NQMom) in fm**2, nuclear magnetic moments (NMagM)
  in nuclear magnetons)

  Atom         1           2           3           4           5           6           7
 IAtWgt=          31          16           1          16           1          16          16
 AtmWgt=  30.9737634  15.9949146   1.0078250  15.9949146   1.0078250  15.9949146  15.9949146
 NucSpn=           1           0           1           0           1           0           0
 AtZEff=  -0.0000000  -0.0000000  -0.0000000  -0.0000000  -0.0000000  -0.0000000  -0.0000000
 NQMom=    0.0000000   0.0000000   0.0000000   0.0000000   0.0000000   0.0000000   0.0000000
 NMagM=    1.1316000   0.0000000   2.7928460   0.0000000   2.7928460   0.0000000   0.0000000
 AtZNuc=  15.0000000   8.0000000   1.0000000   8.0000000   1.0000000   8.0000000   8.0000000
 Background charge distribution read from input stream:
 Point Charges:
 XYZ=   -2.2977  -14.0640  -21.4257 Q=   -0.8340 A=    0.0000 R=    0.0000 C=    0.0000
 XYZ=   -2.6082  -14.2395  -20.5374 Q=    0.4170 A=    0.0000 R=    0.0000 C=    0.0000
 XYZ=   -1.4645  -14.5313  -21.4854 Q=    0.4170 A=    0.0000 R=    0.0000 C=    0.0000
 XYZ=    1.3082   -4.3206  -12.6045 Q=   -0.8340 A=    0.0000 R=    0.0000 C=    0.0000
 XYZ=    1.0036   -3.6443  -13.2096 Q=    0.4170 A=    0.0000 R=    0.0000 C=    0.0000
 XYZ=    2.1336   -3.9799  -12.2595 Q=    0.4170 A=    0.0000 R=    0.0000 C=    0.0000
 XYZ=    5.0563  -20.5448   -5.6894 Q=   -0.8340 A=    0.0000 R=    0.0000 C=    0.0000
 XYZ=    4.2513  -20.3410   -6.1654 Q=    0.4170 A=    0.0000 R=    0.0000 C=    0.0000
 XYZ=    5.5003  -19.7018   -5.5967 Q=    0.4170 A=    0.0000 R=    0.0000 C=    0.0000
 XYZ=  -19.9554  -15.9808   -0.4844 Q=   -0.8340 A=    0.0000 R=    0.0000 C=    0.0000
 XYZ=  -20.1520  -15.3600    0.2172 Q=    0.4170 A=    0.0000 R=    0.0000 C=    0.0000
 XYZ=  -19.5625  -16.7309   -0.0380 Q=    0.4170 A=    0.0000 R=    0.0000 C=    0.0000
 XYZ=   -5.5930   -9.4960   11.9470 Q=   -0.8340 A=    0.0000 R=    0.0000 C=    0.0000
 XYZ=   -4.8730   -9.3010   11.3470 Q=    0.4170 A=    0.0000 R=    0.0000 C=    0.0000
 XYZ=   -5.2990  -10.2650   12.4340 Q=    0.4170 A=    0.0000 R=    0.0000 C=    0.0000
 XYZ=  -18.2250  -15.5747    1.6755 Q=   -0.8340 A=    0.0000 R=    0.0000 C=    0.0000
 XYZ=  -18.7625  -16.2124    2.1453 Q=    0.4170 A=    0.0000 R=    0.0000 C=    0.0000
 XYZ=  -17.3693  -15.9959    1.5938 Q=    0.4170 A=    0.0000 R=    0.0000 C=    0.0000
 XYZ=  -20.5030   -8.7000  -18.3330 Q=   -0.8340 A=    0.0000 R=    0.0000 C=    0.0000
 XYZ=  -20.1000   -7.9550  -18.7790 Q=    0.4170 A=    0.0000 R=    0.0000 C=    0.0000
 XYZ=  -19.9410   -9.4440  -18.5520 Q=    0.4170 A=    0.0000 R=    0.0000 C=    0.0000
 XYZ=  -21.7340  -19.2730   -3.2290 Q=   -0.8340 A=    0.0000 R=    0.0000 C=    0.0000
 XYZ=  -21.4420  -19.8120   -3.9640 Q=    0.4170 A=    0.0000 R=    0.0000 C=    0.0000
 XYZ=  -21.3640  -18.4080   -3.4020 Q=    0.4170 A=    0.0000 R=    0.0000 C=    0.0000
 XYZ=   -7.4235    2.4454    5.3465 Q=   -0.8340 A=    0.0000 R=    0.0000 C=    0.0000
 XYZ=   -7.4649    3.0580    4.6121 Q=    0.4170 A=    0.0000 R=    0.0000 C=    0.0000
 XYZ=   -7.8925    2.8872    6.0543 Q=    0.4170 A=    0.0000 R=    0.0000 C=    0.0000
 XYZ=  -20.7830  -19.9770   -0.1600 Q=   -0.8340 A=    0.0000 R=    0.0000 C=    0.0000
 XYZ=  -21.3390  -19.8850   -0.9340 Q=    0.4170 A=    0.0000 R=    0.0000 C=    0.0000
 XYZ=  -20.1610  -20.6670   -0.3920 Q=    0.4170 A=    0.0000 R=    0.0000 C=    0.0000
 XYZ=   -1.2456  -19.2130    4.0204 Q=   -0.8340 A=    0.0000 R=    0.0000 C=    0.0000
 XYZ=   -1.1735  -20.1225    3.7306 Q=    0.4170 A=    0.0000 R=    0.0000 C=    0.0000
 XYZ=   -1.9847  -19.2128    4.6286 Q=    0.4170 A=    0.0000 R=    0.0000 C=    0.0000
 XYZ=  -21.0867  -14.1783    1.6510 Q=   -0.8340 A=    0.0000 R=    0.0000 C=    0.0000
 XYZ=  -20.6065  -13.6749    2.3084 Q=    0.4170 A=    0.0000 R=    0.0000 C=    0.0000
 XYZ=  -21.4152  -13.5207    1.0379 Q=    0.4170 A=    0.0000 R=    0.0000 C=    0.0000
 XYZ=  -22.5140  -16.5510    6.1750 Q=   -0.8340 A=    0.0000 R=    0.0000 C=    0.0000
 XYZ=  -22.8920  -16.5770    7.0540 Q=    0.4170 A=    0.0000 R=    0.0000 C=    0.0000
 XYZ=  -22.7990  -17.3680    5.7660 Q=    0.4170 A=    0.0000 R=    0.0000 C=    0.0000
 XYZ=   -4.5493  -12.8882    9.1065 Q=   -0.8340 A=    0.0000 R=    0.0000 C=    0.0000
 XYZ=   -4.8146  -12.3177    9.8279 Q=    0.4170 A=    0.0000 R=    0.0000 C=    0.0000
 XYZ=   -3.8221  -12.4258    8.6898 Q=    0.4170 A=    0.0000 R=    0.0000 C=    0.0000
 XYZ=   -3.8051  -21.0275    1.1416 Q=   -0.8340 A=    0.0000 R=    0.0000 C=    0.0000
 XYZ=   -4.1937  -21.8136    0.7578 Q=    0.4170 A=    0.0000 R=    0.0000 C=    0.0000
 XYZ=   -4.1576  -20.3065    0.6201 Q=    0.4170 A=    0.0000 R=    0.0000 C=    0.0000
 XYZ=   -9.4256  -24.4769  -11.0230 Q=   -0.8340 A=    0.0000 R=    0.0000 C=    0.0000
 XYZ=   -9.3477  -23.7283  -10.4316 Q=    0.4170 A=    0.0000 R=    0.0000 C=    0.0000
 XYZ=   -8.6167  -24.9716  -10.8917 Q=    0.4170 A=    0.0000 R=    0.0000 C=    0.0000
 XYZ=  -19.0548  -13.2935  -14.3923 Q=   -0.8340 A=    0.0000 R=    0.0000 C=    0.0000
 XYZ=  -18.9980  -13.1658  -13.4453 Q=    0.4170 A=    0.0000 R=    0.0000 C=    0.0000
 XYZ=  -19.9837  -13.4551  -14.5574 Q=    0.4170 A=    0.0000 R=    0.0000 C=    0.0000
 XYZ=  -17.7510    1.0020  -15.1100 Q=   -0.8340 A=    0.0000 R=    0.0000 C=    0.0000
 XYZ=  -17.1890    0.2420  -14.9580 Q=    0.4170 A=    0.0000 R=    0.0000 C=    0.0000
 XYZ=  -17.2010    1.7550  -14.8950 Q=    0.4170 A=    0.0000 R=    0.0000 C=    0.0000
 XYZ=   -4.0059   -5.9835    4.5264 Q=   -0.8340 A=    0.0000 R=    0.0000 C=    0.0000
 XYZ=   -4.9365   -5.8140    4.3799 Q=    0.4170 A=    0.0000 R=    0.0000 C=    0.0000
 XYZ=   -3.9593   -6.3038    5.4272 Q=    0.4170 A=    0.0000 R=    0.0000 C=    0.0000
 XYZ=    5.9960  -25.0310   -6.8440 Q=   -0.8340 A=    0.0000 R=    0.0000 C=    0.0000
 XYZ=    6.2450  -25.2160   -7.7490 Q=    0.4170 A=    0.0000 R=    0.0000 C=    0.0000
 XYZ=    6.5630  -25.5950   -6.3180 Q=    0.4170 A=    0.0000 R=    0.0000 C=    0.0000
 XYZ=  -18.2354  -12.9275    1.7510 Q=   -0.8340 A=    0.0000 R=    0.0000 C=    0.0000
 XYZ=  -18.3261  -13.8795    1.7101 Q=    0.4170 A=    0.0000 R=    0.0000 C=    0.0000
 XYZ=  -19.1329  -12.5985    1.7008 Q=    0.4170 A=    0.0000 R=    0.0000 C=    0.0000
 XYZ=    5.1020  -24.2100  -13.9410 Q=   -0.8340 A=    0.0000 R=    0.0000 C=    0.0000
 XYZ=    4.2860  -24.5860  -14.2730 Q=    0.4170 A=    0.0000 R=    0.0000 C=    0.0000
 XYZ=    5.5770  -24.9540  -13.5710 Q=    0.4170 A=    0.0000 R=    0.0000 C=    0.0000
 XYZ=  -11.7830    2.5430  -17.5750 Q=   -0.8340 A=    0.0000 R=    0.0000 C=    0.0000
 XYZ=  -11.3150    1.9990  -18.2080 Q=    0.4170 A=    0.0000 R=    0.0000 C=    0.0000
 XYZ=  -11.5370    2.1850  -16.7220 Q=    0.4170 A=    0.0000 R=    0.0000 C=    0.0000
 XYZ=    6.7990  -21.9970    4.9320 Q=   -0.8340 A=    0.0000 R=    0.0000 C=    0.0000
 XYZ=    6.5480  -21.0880    5.0980 Q=    0.4170 A=    0.0000 R=    0.0000 C=    0.0000
 XYZ=    7.1110  -21.9980    4.0270 Q=    0.4170 A=    0.0000 R=    0.0000 C=    0.0000
 XYZ=    5.4638  -12.5934    2.3415 Q=   -0.8340 A=    0.0000 R=    0.0000 C=    0.0000
 XYZ=    6.3627  -12.6143    2.0131 Q=    0.4170 A=    0.0000 R=    0.0000 C=    0.0000
 XYZ=    5.5360  -12.8668    3.2560 Q=    0.4170 A=    0.0000 R=    0.0000 C=    0.0000
 XYZ=  -11.1612  -27.0983   -7.6161 Q=   -0.8340 A=    0.0000 R=    0.0000 C=    0.0000
 XYZ=  -11.3180  -27.2458   -8.5488 Q=    0.4170 A=    0.0000 R=    0.0000 C=    0.0000
 XYZ=  -10.3485  -27.5693   -7.4320 Q=    0.4170 A=    0.0000 R=    0.0000 C=    0.0000
 XYZ=  -25.2000  -16.9990    1.4350 Q=   -0.8340 A=    0.0000 R=    0.0000 C=    0.0000
 XYZ=  -25.5770  -17.8140    1.1020 Q=    0.4170 A=    0.0000 R=    0.0000 C=    0.0000
 XYZ=  -24.2810  -17.2090    1.5990 Q=    0.4170 A=    0.0000 R=    0.0000 C=    0.0000
 XYZ=   10.4244   -5.6314   -6.3391 Q=   -0.8340 A=    0.0000 R=    0.0000 C=    0.0000
 XYZ=    9.5590   -5.8293   -5.9811 Q=    0.4170 A=    0.0000 R=    0.0000 C=    0.0000
 XYZ=   10.5791   -6.3190   -6.9869 Q=    0.4170 A=    0.0000 R=    0.0000 C=    0.0000
 XYZ=   -9.6591  -12.9337    6.3130 Q=   -0.8340 A=    0.0000 R=    0.0000 C=    0.0000
 XYZ=   -9.9402  -12.5659    5.4752 Q=    0.4170 A=    0.0000 R=    0.0000 C=    0.0000
 XYZ=   -9.4658  -12.1705    6.8574 Q=    0.4170 A=    0.0000 R=    0.0000 C=    0.0000
 XYZ=  -14.2442   -3.7202  -19.2742 Q=   -0.8340 A=    0.0000 R=    0.0000 C=    0.0000
 XYZ=  -14.3203   -4.0073  -20.1842 Q=    0.4170 A=    0.0000 R=    0.0000 C=    0.0000
 XYZ=  -14.3791   -2.7732  -19.3094 Q=    0.4170 A=    0.0000 R=    0.0000 C=    0.0000
 XYZ=   -8.2562  -14.5871  -18.9904 Q=   -0.8340 A=    0.0000 R=    0.0000 C=    0.0000
 XYZ=   -8.0372  -14.6815  -19.9174 Q=    0.4170 A=    0.0000 R=    0.0000 C=    0.0000
 XYZ=   -7.6206  -15.1402  -18.5362 Q=    0.4170 A=    0.0000 R=    0.0000 C=    0.0000
 XYZ=   -4.1330    5.8640    5.6920 Q=   -0.8340 A=    0.0000 R=    0.0000 C=    0.0000
 XYZ=   -3.4210    5.9530    6.3250 Q=    0.4170 A=    0.0000 R=    0.0000 C=    0.0000
 XYZ=   -4.1930    4.9220    5.5300 Q=    0.4170 A=    0.0000 R=    0.0000 C=    0.0000
 XYZ=  -14.8124  -11.9780    1.6503 Q=   -0.8340 A=    0.0000 R=    0.0000 C=    0.0000
 XYZ=  -15.2009  -11.1296    1.8636 Q=    0.4170 A=    0.0000 R=    0.0000 C=    0.0000
 XYZ=  -13.8826  -11.8737    1.8523 Q=    0.4170 A=    0.0000 R=    0.0000 C=    0.0000
 XYZ=   -5.2728  -15.6809   -8.2603 Q=   -0.8340 A=    0.0000 R=    0.0000 C=    0.0000
 XYZ=   -4.5473  -15.9040   -8.8435 Q=    0.4170 A=    0.0000 R=    0.0000 C=    0.0000
 XYZ=   -5.2884  -14.7239   -8.2519 Q=    0.4170 A=    0.0000 R=    0.0000 C=    0.0000
 XYZ=  -17.2045   -4.0635  -15.0600 Q=   -0.8340 A=    0.0000 R=    0.0000 C=    0.0000
 XYZ=  -17.5297   -4.9636  -15.0792 Q=    0.4170 A=    0.0000 R=    0.0000 C=    0.0000
 XYZ=  -17.9033   -3.5472  -15.4616 Q=    0.4170 A=    0.0000 R=    0.0000 C=    0.0000
 XYZ=    6.0565  -16.8311   -7.8715 Q=   -0.8340 A=    0.0000 R=    0.0000 C=    0.0000
 XYZ=    6.3543  -16.1212   -7.3026 Q=    0.4170 A=    0.0000 R=    0.0000 C=    0.0000
 XYZ=    5.2436  -17.1365   -7.4687 Q=    0.4170 A=    0.0000 R=    0.0000 C=    0.0000
 XYZ=  -11.9690  -26.2380  -16.1010 Q=   -0.8340 A=    0.0000 R=    0.0000 C=    0.0000
 XYZ=  -12.9220  -26.3080  -16.0580 Q=    0.4170 A=    0.0000 R=    0.0000 C=    0.0000
 XYZ=  -11.6790  -27.0940  -16.4170 Q=    0.4170 A=    0.0000 R=    0.0000 C=    0.0000
 XYZ=  -13.7270    7.0930  -10.9470 Q=   -0.8340 A=    0.0000 R=    0.0000 C=    0.0000
 XYZ=  -13.7370    7.9660  -11.3390 Q=    0.4170 A=    0.0000 R=    0.0000 C=    0.0000
 XYZ=  -12.8890    6.7180  -11.2160 Q=    0.4170 A=    0.0000 R=    0.0000 C=    0.0000
 XYZ=    7.5890    1.3110  -15.5450 Q=   -0.8340 A=    0.0000 R=    0.0000 C=    0.0000
 XYZ=    8.1750    1.4020  -14.7940 Q=    0.4170 A=    0.0000 R=    0.0000 C=    0.0000
 XYZ=    7.2870    2.2020  -15.7240 Q=    0.4170 A=    0.0000 R=    0.0000 C=    0.0000
 XYZ=  -17.5940  -10.4620   10.7710 Q=   -0.8340 A=    0.0000 R=    0.0000 C=    0.0000
 XYZ=  -17.9620  -10.2380   11.6250 Q=    0.4170 A=    0.0000 R=    0.0000 C=    0.0000
 XYZ=  -16.8110   -9.9170   10.6960 Q=    0.4170 A=    0.0000 R=    0.0000 C=    0.0000
 XYZ=   -4.4890   -0.0580  -22.2840 Q=   -0.8340 A=    0.0000 R=    0.0000 C=    0.0000
 XYZ=   -3.9370   -0.8150  -22.4830 Q=    0.4170 A=    0.0000 R=    0.0000 C=    0.0000
 XYZ=   -5.0980   -0.3750  -21.6170 Q=    0.4170 A=    0.0000 R=    0.0000 C=    0.0000
 XYZ=  -21.8117   -3.6425   -5.1271 Q=   -0.8340 A=    0.0000 R=    0.0000 C=    0.0000
 XYZ=  -22.6922   -3.8736   -5.4232 Q=    0.4170 A=    0.0000 R=    0.0000 C=    0.0000
 XYZ=  -21.2868   -4.4235   -5.3025 Q=    0.4170 A=    0.0000 R=    0.0000 C=    0.0000
 XYZ=  -18.7740   -1.1270  -16.7720 Q=   -0.8340 A=    0.0000 R=    0.0000 C=    0.0000
 XYZ=  -19.3860   -1.7410  -16.3670 Q=    0.4170 A=    0.0000 R=    0.0000 C=    0.0000
 XYZ=  -18.4860   -0.5650  -16.0530 Q=    0.4170 A=    0.0000 R=    0.0000 C=    0.0000
 XYZ=  -16.1155  -23.4797   -3.4881 Q=   -0.8340 A=    0.0000 R=    0.0000 C=    0.0000
 XYZ=  -15.5352  -22.8762   -3.0240 Q=    0.4170 A=    0.0000 R=    0.0000 C=    0.0000
 XYZ=  -15.5677  -24.2414   -3.6776 Q=    0.4170 A=    0.0000 R=    0.0000 C=    0.0000
 XYZ=    9.5420  -21.0270  -12.6220 Q=   -0.8340 A=    0.0000 R=    0.0000 C=    0.0000
 XYZ=   10.3070  -20.4540  -12.5650 Q=    0.4170 A=    0.0000 R=    0.0000 C=    0.0000
 XYZ=    9.6990  -21.5590  -13.4020 Q=    0.4170 A=    0.0000 R=    0.0000 C=    0.0000
 XYZ=  -12.7822   -7.8407    4.0533 Q=   -0.8340 A=    0.0000 R=    0.0000 C=    0.0000
 XYZ=  -11.9771   -7.5583    4.4874 Q=    0.4170 A=    0.0000 R=    0.0000 C=    0.0000
 XYZ=  -13.3867   -8.0326    4.7702 Q=    0.4170 A=    0.0000 R=    0.0000 C=    0.0000
 XYZ=    9.4390   -5.1810    4.5990 Q=   -0.8340 A=    0.0000 R=    0.0000 C=    0.0000
 XYZ=    9.4310   -5.6600    3.7710 Q=    0.4170 A=    0.0000 R=    0.0000 C=    0.0000
 XYZ=    9.3890   -5.8610    5.2710 Q=    0.4170 A=    0.0000 R=    0.0000 C=    0.0000
 XYZ=    0.5203  -16.9553    7.4546 Q=   -0.8340 A=    0.0000 R=    0.0000 C=    0.0000
 XYZ=   -0.2154  -16.9802    6.8428 Q=    0.4170 A=    0.0000 R=    0.0000 C=    0.0000
 XYZ=    0.7204  -17.8754    7.6268 Q=    0.4170 A=    0.0000 R=    0.0000 C=    0.0000
 XYZ=   -2.3670  -28.1780   -8.6920 Q=   -0.8340 A=    0.0000 R=    0.0000 C=    0.0000
 XYZ=   -2.3860  -28.7870   -9.4300 Q=    0.4170 A=    0.0000 R=    0.0000 C=    0.0000
 XYZ=   -2.0390  -28.6990   -7.9590 Q=    0.4170 A=    0.0000 R=    0.0000 C=    0.0000
 XYZ=   -5.3028   -5.8415    7.5536 Q=   -0.8340 A=    0.0000 R=    0.0000 C=    0.0000
 XYZ=   -5.7499   -4.9960    7.5906 Q=    0.4170 A=    0.0000 R=    0.0000 C=    0.0000
 XYZ=   -4.5426   -5.7362    8.1257 Q=    0.4170 A=    0.0000 R=    0.0000 C=    0.0000
 XYZ=  -13.4680  -12.0270  -23.1910 Q=   -0.8340 A=    0.0000 R=    0.0000 C=    0.0000
 XYZ=  -14.0470  -12.6070  -22.6960 Q=    0.4170 A=    0.0000 R=    0.0000 C=    0.0000
 XYZ=  -12.6100  -12.4490  -23.1460 Q=    0.4170 A=    0.0000 R=    0.0000 C=    0.0000
 XYZ=   -1.6954  -11.0674   -6.8116 Q=   -0.8340 A=    0.0000 R=    0.0000 C=    0.0000
 XYZ=   -1.8852  -12.0028   -6.8836 Q=    0.4170 A=    0.0000 R=    0.0000 C=    0.0000
 XYZ=   -2.4354  -10.7094   -6.3212 Q=    0.4170 A=    0.0000 R=    0.0000 C=    0.0000
 XYZ=   -6.8181  -17.1823  -14.0896 Q=   -0.8340 A=    0.0000 R=    0.0000 C=    0.0000
 XYZ=   -6.7771  -16.2296  -14.1729 Q=    0.4170 A=    0.0000 R=    0.0000 C=    0.0000
 XYZ=   -7.7172  -17.4058  -14.3302 Q=    0.4170 A=    0.0000 R=    0.0000 C=    0.0000
 XYZ=  -17.9873   -7.0984  -11.3970 Q=   -0.8340 A=    0.0000 R=    0.0000 C=    0.0000
 XYZ=  -18.3194   -7.4181  -12.2359 Q=    0.4170 A=    0.0000 R=    0.0000 C=    0.0000
 XYZ=  -17.7518   -6.1858  -11.5642 Q=    0.4170 A=    0.0000 R=    0.0000 C=    0.0000
 XYZ=  -10.4656   -0.1421   -9.4631 Q=   -0.8340 A=    0.0000 R=    0.0000 C=    0.0000
 XYZ=  -10.3221    0.3930   -8.6825 Q=    0.4170 A=    0.0000 R=    0.0000 C=    0.0000
 XYZ=   -9.6083   -0.5223   -9.6544 Q=    0.4170 A=    0.0000 R=    0.0000 C=    0.0000
 XYZ=  -21.6739  -17.7416   -8.8506 Q=   -0.8340 A=    0.0000 R=    0.0000 C=    0.0000
 XYZ=  -20.7540  -17.9483   -8.6853 Q=    0.4170 A=    0.0000 R=    0.0000 C=    0.0000
 XYZ=  -21.6823  -16.7986   -9.0144 Q=    0.4170 A=    0.0000 R=    0.0000 C=    0.0000
 XYZ=   -4.9949  -23.1807   -0.0859 Q=   -0.8340 A=    0.0000 R=    0.0000 C=    0.0000
 XYZ=   -5.0154  -24.1308   -0.2009 Q=    0.4170 A=    0.0000 R=    0.0000 C=    0.0000
 XYZ=   -5.8777  -22.8919   -0.3171 Q=    0.4170 A=    0.0000 R=    0.0000 C=    0.0000
 XYZ=  -11.8880  -15.4980   11.7450 Q=   -0.8340 A=    0.0000 R=    0.0000 C=    0.0000
 XYZ=  -12.7380  -15.5450   11.3080 Q=    0.4170 A=    0.0000 R=    0.0000 C=    0.0000
 XYZ=  -11.7160  -14.5610   11.8370 Q=    0.4170 A=    0.0000 R=    0.0000 C=    0.0000
 XYZ=   10.4632  -12.6873   -7.5330 Q=   -0.8340 A=    0.0000 R=    0.0000 C=    0.0000
 XYZ=   10.0968  -13.2944   -6.8900 Q=    0.4170 A=    0.0000 R=    0.0000 C=    0.0000
 XYZ=   11.0376  -12.1159   -7.0234 Q=    0.4170 A=    0.0000 R=    0.0000 C=    0.0000
 XYZ=   -2.5857  -20.3181  -13.5539 Q=   -0.8340 A=    0.0000 R=    0.0000 C=    0.0000
 XYZ=   -1.7143  -20.1068  -13.8889 Q=    0.4170 A=    0.0000 R=    0.0000 C=    0.0000
 XYZ=   -3.1876  -19.9137  -14.1789 Q=    0.4170 A=    0.0000 R=    0.0000 C=    0.0000
 XYZ=   -0.0800    2.7290  -16.4170 Q=   -0.8340 A=    0.0000 R=    0.0000 C=    0.0000
 XYZ=    0.8110    2.4130  -16.5680 Q=    0.4170 A=    0.0000 R=    0.0000 C=    0.0000
 XYZ=   -0.0200    3.2370  -15.6080 Q=    0.4170 A=    0.0000 R=    0.0000 C=    0.0000
 XYZ=  -15.5401   -9.3005   -7.5652 Q=   -0.8340 A=    0.0000 R=    0.0000 C=    0.0000
 XYZ=  -14.6126   -9.4149   -7.3578 Q=    0.4170 A=    0.0000 R=    0.0000 C=    0.0000
 XYZ=  -15.9738  -10.0414   -7.1419 Q=    0.4170 A=    0.0000 R=    0.0000 C=    0.0000
 XYZ=   -9.3862  -12.4996    3.4290 Q=   -0.8340 A=    0.0000 R=    0.0000 C=    0.0000
 XYZ=  -10.0253  -11.9039    3.0379 Q=    0.4170 A=    0.0000 R=    0.0000 C=    0.0000
 XYZ=   -8.7660  -12.6830    2.7233 Q=    0.4170 A=    0.0000 R=    0.0000 C=    0.0000
 XYZ=   -6.9900    8.5940  -10.5640 Q=   -0.8340 A=    0.0000 R=    0.0000 C=    0.0000
 XYZ=   -7.2530    7.7260  -10.2590 Q=    0.4170 A=    0.0000 R=    0.0000 C=    0.0000
 XYZ=   -7.7750    8.9510  -10.9790 Q=    0.4170 A=    0.0000 R=    0.0000 C=    0.0000
 XYZ=   -8.8396  -16.3854   -4.5948 Q=   -0.8340 A=    0.0000 R=    0.0000 C=    0.0000
 XYZ=   -8.5971  -16.5762   -3.6887 Q=    0.4170 A=    0.0000 R=    0.0000 C=    0.0000
 XYZ=   -8.0428  -16.0274   -4.9861 Q=    0.4170 A=    0.0000 R=    0.0000 C=    0.0000
 XYZ=   -5.6390  -16.7630   12.5490 Q=   -0.8340 A=    0.0000 R=    0.0000 C=    0.0000
 XYZ=   -5.4510  -16.0280   11.9660 Q=    0.4170 A=    0.0000 R=    0.0000 C=    0.0000
 XYZ=   -4.7780  -17.0980   12.7990 Q=    0.4170 A=    0.0000 R=    0.0000 C=    0.0000
 XYZ=    7.9770   -3.4280    7.8400 Q=   -0.8340 A=    0.0000 R=    0.0000 C=    0.0000
 XYZ=    8.6330   -2.7740    7.6000 Q=    0.4170 A=    0.0000 R=    0.0000 C=    0.0000
 XYZ=    7.5300   -3.6330    7.0190 Q=    0.4170 A=    0.0000 R=    0.0000 C=    0.0000
 XYZ=  -17.1141  -10.3471    5.9981 Q=   -0.8340 A=    0.0000 R=    0.0000 C=    0.0000
 XYZ=  -17.0756  -11.2839    5.8057 Q=    0.4170 A=    0.0000 R=    0.0000 C=    0.0000
 XYZ=  -17.1376   -9.9263    5.1386 Q=    0.4170 A=    0.0000 R=    0.0000 C=    0.0000
 XYZ=  -14.8043   -9.3955    2.6122 Q=   -0.8340 A=    0.0000 R=    0.0000 C=    0.0000
 XYZ=  -15.4398   -9.1626    3.2892 Q=    0.4170 A=    0.0000 R=    0.0000 C=    0.0000
 XYZ=  -14.0014   -8.9433    2.8712 Q=    0.4170 A=    0.0000 R=    0.0000 C=    0.0000
 XYZ=    9.0640  -11.5730    5.2100 Q=   -0.8340 A=    0.0000 R=    0.0000 C=    0.0000
 XYZ=    9.2700  -11.9060    6.0840 Q=    0.4170 A=    0.0000 R=    0.0000 C=    0.0000
 XYZ=    9.2490  -12.3070    4.6240 Q=    0.4170 A=    0.0000 R=    0.0000 C=    0.0000
 XYZ=  -18.3047  -15.9472  -15.3591 Q=   -0.8340 A=    0.0000 R=    0.0000 C=    0.0000
 XYZ=  -18.1714  -15.1224  -14.8921 Q=    0.4170 A=    0.0000 R=    0.0000 C=    0.0000
 XYZ=  -19.2531  -16.0762  -15.3524 Q=    0.4170 A=    0.0000 R=    0.0000 C=    0.0000
 XYZ=   -4.9460    7.1710    1.2470 Q=   -0.8340 A=    0.0000 R=    0.0000 C=    0.0000
 XYZ=   -5.0380    7.0520    2.1920 Q=    0.4170 A=    0.0000 R=    0.0000 C=    0.0000
 XYZ=   -5.6590    7.7640    1.0100 Q=    0.4170 A=    0.0000 R=    0.0000 C=    0.0000
 XYZ=   -1.8694  -16.6878    5.9979 Q=   -0.8340 A=    0.0000 R=    0.0000 C=    0.0000
 XYZ=   -1.5622  -17.1652    5.2272 Q=    0.4170 A=    0.0000 R=    0.0000 C=    0.0000
 XYZ=   -2.7816  -16.9590    6.1005 Q=    0.4170 A=    0.0000 R=    0.0000 C=    0.0000
 XYZ=   10.1910  -18.5640   -8.9970 Q=   -0.8340 A=    0.0000 R=    0.0000 C=    0.0000
 XYZ=   10.2560  -19.2990   -9.6060 Q=    0.4170 A=    0.0000 R=    0.0000 C=    0.0000
 XYZ=    9.6800  -17.9060   -9.4680 Q=    0.4170 A=    0.0000 R=    0.0000 C=    0.0000
 XYZ=   -4.7980   -4.5460   14.4130 Q=   -0.8340 A=    0.0000 R=    0.0000 C=    0.0000
 XYZ=   -5.0430   -5.0620   15.1810 Q=    0.4170 A=    0.0000 R=    0.0000 C=    0.0000
 XYZ=   -4.5650   -5.1970   13.7510 Q=    0.4170 A=    0.0000 R=    0.0000 C=    0.0000
 XYZ=   -3.9017   -8.8040  -21.7840 Q=   -0.8340 A=    0.0000 R=    0.0000 C=    0.0000
 XYZ=   -3.5667   -9.4161  -21.1288 Q=    0.4170 A=    0.0000 R=    0.0000 C=    0.0000
 XYZ=   -3.2649   -8.0894  -21.7926 Q=    0.4170 A=    0.0000 R=    0.0000 C=    0.0000
 XYZ=  -25.9690  -18.4970   -1.7330 Q=   -0.8340 A=    0.0000 R=    0.0000 C=    0.0000
 XYZ=  -26.2680  -18.2900   -2.6180 Q=    0.4170 A=    0.0000 R=    0.0000 C=    0.0000
 XYZ=  -25.1230  -18.0560   -1.6570 Q=    0.4170 A=    0.0000 R=    0.0000 C=    0.0000
 XYZ=  -15.8442   -2.9051   -7.2217 Q=   -0.8340 A=    0.0000 R=    0.0000 C=    0.0000
 XYZ=  -15.9414   -3.4157   -8.0256 Q=    0.4170 A=    0.0000 R=    0.0000 C=    0.0000
 XYZ=  -15.3707   -2.1187   -7.4927 Q=    0.4170 A=    0.0000 R=    0.0000 C=    0.0000
 XYZ=  -25.1130  -15.3660   -0.8340 Q=   -0.8340 A=    0.0000 R=    0.0000 C=    0.0000
 XYZ=  -25.4190  -15.7920   -1.6350 Q=    0.4170 A=    0.0000 R=    0.0000 C=    0.0000
 XYZ=  -25.1990  -16.0380   -0.1570 Q=    0.4170 A=    0.0000 R=    0.0000 C=    0.0000
 XYZ=   -7.4392  -18.7922  -16.4219 Q=   -0.8340 A=    0.0000 R=    0.0000 C=    0.0000
 XYZ=   -6.7346  -18.2448  -16.7684 Q=    0.4170 A=    0.0000 R=    0.0000 C=    0.0000
 XYZ=   -6.9973  -19.4157  -15.8455 Q=    0.4170 A=    0.0000 R=    0.0000 C=    0.0000
 XYZ=  -11.2275   -0.4835   -4.5293 Q=   -0.8340 A=    0.0000 R=    0.0000 C=    0.0000
 XYZ=  -10.6627   -0.9988   -5.1051 Q=    0.4170 A=    0.0000 R=    0.0000 C=    0.0000
 XYZ=  -12.0293   -1.0008   -4.4538 Q=    0.4170 A=    0.0000 R=    0.0000 C=    0.0000
 XYZ=    1.9515   -0.2755  -10.6074 Q=   -0.8340 A=    0.0000 R=    0.0000 C=    0.0000
 XYZ=    1.1907   -0.0663  -11.1493 Q=    0.4170 A=    0.0000 R=    0.0000 C=    0.0000
 XYZ=    2.3423    0.5744  -10.4042 Q=    0.4170 A=    0.0000 R=    0.0000 C=    0.0000
 XYZ=   -4.8510    5.4636   -2.6273 Q=   -0.8340 A=    0.0000 R=    0.0000 C=    0.0000
 XYZ=   -3.9408    5.1737   -2.5670 Q=    0.4170 A=    0.0000 R=    0.0000 C=    0.0000
 XYZ=   -5.3578    4.6533   -2.6818 Q=    0.4170 A=    0.0000 R=    0.0000 C=    0.0000
 XYZ=    5.3170    0.2840  -16.9880 Q=   -0.8340 A=    0.0000 R=    0.0000 C=    0.0000
 XYZ=    4.5690    0.8710  -17.1010 Q=    0.4170 A=    0.0000 R=    0.0000 C=    0.0000
 XYZ=    5.8920    0.7440  -16.3760 Q=    0.4170 A=    0.0000 R=    0.0000 C=    0.0000
 XYZ=   -9.8520    8.8440    1.8950 Q=   -0.8340 A=    0.0000 R=    0.0000 C=    0.0000
 XYZ=  -10.7200    9.0520    2.2430 Q=    0.4170 A=    0.0000 R=    0.0000 C=    0.0000
 XYZ=   -9.8490    7.8910    1.8120 Q=    0.4170 A=    0.0000 R=    0.0000 C=    0.0000
 XYZ=  -18.8466  -22.1459   -7.9884 Q=   -0.8340 A=    0.0000 R=    0.0000 C=    0.0000
 XYZ=  -18.8937  -21.5713   -7.2244 Q=    0.4170 A=    0.0000 R=    0.0000 C=    0.0000
 XYZ=  -19.7592  -22.3532   -8.1895 Q=    0.4170 A=    0.0000 R=    0.0000 C=    0.0000
 XYZ=    0.9530   -4.3560   11.4070 Q=   -0.8340 A=    0.0000 R=    0.0000 C=    0.0000
 XYZ=    0.8480   -3.4320   11.1790 Q=    0.4170 A=    0.0000 R=    0.0000 C=    0.0000
 XYZ=    1.6480   -4.3630   12.0650 Q=    0.4170 A=    0.0000 R=    0.0000 C=    0.0000
 XYZ=   -0.9694    0.7207    1.1583 Q=   -0.8340 A=    0.0000 R=    0.0000 C=    0.0000
 XYZ=   -0.9589    0.5930    2.1069 Q=    0.4170 A=    0.0000 R=    0.0000 C=    0.0000
 XYZ=   -1.5612    1.4607    1.0224 Q=    0.4170 A=    0.0000 R=    0.0000 C=    0.0000
 XYZ=  -19.4450  -19.8340  -18.6330 Q=   -0.8340 A=    0.0000 R=    0.0000 C=    0.0000
 XYZ=  -18.9380  -19.1450  -18.2030 Q=    0.4170 A=    0.0000 R=    0.0000 C=    0.0000
 XYZ=  -20.3540  -19.6420  -18.4030 Q=    0.4170 A=    0.0000 R=    0.0000 C=    0.0000
 XYZ=  -16.6019  -16.7490  -10.8584 Q=   -0.8340 A=    0.0000 R=    0.0000 C=    0.0000
 XYZ=  -16.2928  -17.6073  -10.5688 Q=    0.4170 A=    0.0000 R=    0.0000 C=    0.0000
 XYZ=  -15.8739  -16.3905  -11.3661 Q=    0.4170 A=    0.0000 R=    0.0000 C=    0.0000
 XYZ=   -4.1007    0.4130  -10.5843 Q=   -0.8340 A=    0.0000 R=    0.0000 C=    0.0000
 XYZ=   -5.0347    0.2035  -10.5889 Q=    0.4170 A=    0.0000 R=    0.0000 C=    0.0000
 XYZ=   -4.0505    1.2943  -10.9544 Q=    0.4170 A=    0.0000 R=    0.0000 C=    0.0000
 XYZ=  -22.2260   -6.6935   -7.9121 Q=   -0.8340 A=    0.0000 R=    0.0000 C=    0.0000
 XYZ=  -21.9237   -6.6080   -7.0079 Q=    0.4170 A=    0.0000 R=    0.0000 C=    0.0000
 XYZ=  -21.4336   -6.8875   -8.4127 Q=    0.4170 A=    0.0000 R=    0.0000 C=    0.0000
 XYZ=   10.4640   -3.2980  -17.0380 Q=   -0.8340 A=    0.0000 R=    0.0000 C=    0.0000
 XYZ=    9.9960   -2.6400  -16.5240 Q=    0.4170 A=    0.0000 R=    0.0000 C=    0.0000
 XYZ=    9.8830   -4.0590  -17.0390 Q=    0.4170 A=    0.0000 R=    0.0000 C=    0.0000
 XYZ=  -14.1800  -15.2587    4.6992 Q=   -0.8340 A=    0.0000 R=    0.0000 C=    0.0000
 XYZ=  -14.2976  -15.6692    3.8425 Q=    0.4170 A=    0.0000 R=    0.0000 C=    0.0000
 XYZ=  -13.6376  -14.4896    4.5243 Q=    0.4170 A=    0.0000 R=    0.0000 C=    0.0000
 XYZ=   -6.8509    4.9866   -5.6775 Q=   -0.8340 A=    0.0000 R=    0.0000 C=    0.0000
 XYZ=   -6.3966    4.1463   -5.6176 Q=    0.4170 A=    0.0000 R=    0.0000 C=    0.0000
 XYZ=   -7.6508    4.8640   -5.1662 Q=    0.4170 A=    0.0000 R=    0.0000 C=    0.0000
 XYZ=    0.4480  -27.6550    4.3590 Q=   -0.8340 A=    0.0000 R=    0.0000 C=    0.0000
 XYZ=    0.0130  -28.5030    4.2820 Q=    0.4170 A=    0.0000 R=    0.0000 C=    0.0000
 XYZ=    0.1600  -27.1660    3.5880 Q=    0.4170 A=    0.0000 R=    0.0000 C=    0.0000
 XYZ=   -0.8670   -3.3690  -22.8590 Q=   -0.8340 A=    0.0000 R=    0.0000 C=    0.0000
 XYZ=   -0.3210   -2.8350  -23.4360 Q=    0.4170 A=    0.0000 R=    0.0000 C=    0.0000
 XYZ=   -0.3130   -4.1140  -22.6260 Q=    0.4170 A=    0.0000 R=    0.0000 C=    0.0000
 XYZ=   -6.3646   -4.6127    3.3603 Q=   -0.8340 A=    0.0000 R=    0.0000 C=    0.0000
 XYZ=   -7.2322   -5.0035    3.2563 Q=    0.4170 A=    0.0000 R=    0.0000 C=    0.0000
 XYZ=   -5.8919   -4.8631    2.5665 Q=    0.4170 A=    0.0000 R=    0.0000 C=    0.0000
 XYZ=  -21.3850   -1.0290    5.9340 Q=   -0.8340 A=    0.0000 R=    0.0000 C=    0.0000
 XYZ=  -20.4790   -0.9550    5.6330 Q=    0.4170 A=    0.0000 R=    0.0000 C=    0.0000
 XYZ=  -21.3280   -0.9590    6.8870 Q=    0.4170 A=    0.0000 R=    0.0000 C=    0.0000
 XYZ=    1.3113  -18.8560   -2.2121 Q=   -0.8340 A=    0.0000 R=    0.0000 C=    0.0000
 XYZ=    1.8119  -18.8182   -3.0270 Q=    0.4170 A=    0.0000 R=    0.0000 C=    0.0000
 XYZ=    0.4075  -18.6859   -2.4775 Q=    0.4170 A=    0.0000 R=    0.0000 C=    0.0000
 XYZ=   -0.7797  -10.2377    6.5578 Q=   -0.8340 A=    0.0000 R=    0.0000 C=    0.0000
 XYZ=   -0.5192  -10.3078    5.6394 Q=    0.4170 A=    0.0000 R=    0.0000 C=    0.0000
 XYZ=   -0.6293  -11.1119    6.9174 Q=    0.4170 A=    0.0000 R=    0.0000 C=    0.0000
 XYZ=    9.9160  -17.2030  -17.4370 Q=   -0.8340 A=    0.0000 R=    0.0000 C=    0.0000
 XYZ=   10.5000  -17.1530  -16.6800 Q=    0.4170 A=    0.0000 R=    0.0000 C=    0.0000
 XYZ=   10.4710  -17.5260  -18.1470 Q=    0.4170 A=    0.0000 R=    0.0000 C=    0.0000
 XYZ=    0.9763  -10.8910   -6.7899 Q=   -0.8340 A=    0.0000 R=    0.0000 C=    0.0000
 XYZ=    0.1196  -11.3064   -6.6911 Q=    0.4170 A=    0.0000 R=    0.0000 C=    0.0000
 XYZ=    1.4441  -11.1112   -5.9843 Q=    0.4170 A=    0.0000 R=    0.0000 C=    0.0000
 XYZ=  -12.9425   -3.6475   -0.0544 Q=   -0.8340 A=    0.0000 R=    0.0000 C=    0.0000
 XYZ=  -13.5111   -3.2814   -0.7318 Q=    0.4170 A=    0.0000 R=    0.0000 C=    0.0000
 XYZ=  -13.3175   -3.3344    0.7687 Q=    0.4170 A=    0.0000 R=    0.0000 C=    0.0000
 XYZ=    2.5280   -0.2490    9.9690 Q=   -0.8340 A=    0.0000 R=    0.0000 C=    0.0000
 XYZ=    3.3950   -0.6560    9.9690 Q=    0.4170 A=    0.0000 R=    0.0000 C=    0.0000
 XYZ=    2.6960    0.6730    9.7720 Q=    0.4170 A=    0.0000 R=    0.0000 C=    0.0000
 XYZ=    6.5970  -12.4080   12.0930 Q=   -0.8340 A=    0.0000 R=    0.0000 C=    0.0000
 XYZ=    5.8020  -12.6770   11.6310 Q=    0.4170 A=    0.0000 R=    0.0000 C=    0.0000
 XYZ=    6.3300  -12.3380   13.0090 Q=    0.4170 A=    0.0000 R=    0.0000 C=    0.0000
 XYZ=  -22.6540   -5.9510    3.8400 Q=   -0.8340 A=    0.0000 R=    0.0000 C=    0.0000
 XYZ=  -22.2600   -6.6000    3.2570 Q=    0.4170 A=    0.0000 R=    0.0000 C=    0.0000
 XYZ=  -22.1030   -5.1750    3.7420 Q=    0.4170 A=    0.0000 R=    0.0000 C=    0.0000
 XYZ=   10.9000  -23.7710  -10.1260 Q=   -0.8340 A=    0.0000 R=    0.0000 C=    0.0000
 XYZ=   10.5590  -23.1230   -9.5100 Q=    0.4170 A=    0.0000 R=    0.0000 C=    0.0000
 XYZ=   11.8490  -23.7350  -10.0110 Q=    0.4170 A=    0.0000 R=    0.0000 C=    0.0000
 XYZ=  -21.4291   -7.9828  -12.6368 Q=   -0.8340 A=    0.0000 R=    0.0000 C=    0.0000
 XYZ=  -21.9836   -8.5343  -13.1886 Q=    0.4170 A=    0.0000 R=    0.0000 C=    0.0000
 XYZ=  -20.5406   -8.1400  -12.9562 Q=    0.4170 A=    0.0000 R=    0.0000 C=    0.0000
 XYZ=  -18.9714  -12.9691  -11.4296 Q=   -0.8340 A=    0.0000 R=    0.0000 C=    0.0000
 XYZ=  -19.3365  -12.1566  -11.0794 Q=    0.4170 A=    0.0000 R=    0.0000 C=    0.0000
 XYZ=  -18.0771  -12.9967  -11.0893 Q=    0.4170 A=    0.0000 R=    0.0000 C=    0.0000
 XYZ=   -2.9768    1.1328   -3.3269 Q=   -0.8340 A=    0.0000 R=    0.0000 C=    0.0000
 XYZ=   -3.0922    0.6455   -4.1426 Q=    0.4170 A=    0.0000 R=    0.0000 C=    0.0000
 XYZ=   -2.0380    1.3153   -3.2871 Q=    0.4170 A=    0.0000 R=    0.0000 C=    0.0000
 XYZ=   -1.8310   -1.0780  -21.3540 Q=   -0.8340 A=    0.0000 R=    0.0000 C=    0.0000
 XYZ=   -1.0370   -0.5570  -21.4780 Q=    0.4170 A=    0.0000 R=    0.0000 C=    0.0000
 XYZ=   -1.7630   -1.7770  -22.0030 Q=    0.4170 A=    0.0000 R=    0.0000 C=    0.0000
 XYZ=  -19.6120  -22.3050  -15.9660 Q=   -0.8340 A=    0.0000 R=    0.0000 C=    0.0000
 XYZ=  -18.8090  -22.7630  -16.2180 Q=    0.4170 A=    0.0000 R=    0.0000 C=    0.0000
 XYZ=  -19.3160  -21.4380  -15.6900 Q=    0.4170 A=    0.0000 R=    0.0000 C=    0.0000
 XYZ=  -11.4383  -21.3908  -16.2662 Q=   -0.8340 A=    0.0000 R=    0.0000 C=    0.0000
 XYZ=  -10.5131  -21.2111  -16.0990 Q=    0.4170 A=    0.0000 R=    0.0000 C=    0.0000
 XYZ=  -11.6147  -22.2030  -15.7915 Q=    0.4170 A=    0.0000 R=    0.0000 C=    0.0000
 XYZ=   -7.9030  -12.4850  -22.8610 Q=   -0.8340 A=    0.0000 R=    0.0000 C=    0.0000
 XYZ=   -7.3680  -12.7750  -23.6010 Q=    0.4170 A=    0.0000 R=    0.0000 C=    0.0000
 XYZ=   -7.3960  -12.7330  -22.0880 Q=    0.4170 A=    0.0000 R=    0.0000 C=    0.0000
 XYZ=  -16.0862   -0.9229  -13.7260 Q=   -0.8340 A=    0.0000 R=    0.0000 C=    0.0000
 XYZ=  -15.1317   -0.9263  -13.6551 Q=    0.4170 A=    0.0000 R=    0.0000 C=    0.0000
 XYZ=  -16.3809   -1.5077  -13.0279 Q=    0.4170 A=    0.0000 R=    0.0000 C=    0.0000
 XYZ=   -5.1097  -24.6897    2.7421 Q=   -0.8340 A=    0.0000 R=    0.0000 C=    0.0000
 XYZ=   -5.3072  -24.0832    2.0285 Q=    0.4170 A=    0.0000 R=    0.0000 C=    0.0000
 XYZ=   -5.9664  -24.9887    3.0470 Q=    0.4170 A=    0.0000 R=    0.0000 C=    0.0000
 XYZ=    0.3710    4.8080  -13.5320 Q=   -0.8340 A=    0.0000 R=    0.0000 C=    0.0000
 XYZ=    0.8550    5.2820  -14.2080 Q=    0.4170 A=    0.0000 R=    0.0000 C=    0.0000
 XYZ=   -0.5490    4.9300  -13.7650 Q=    0.4170 A=    0.0000 R=    0.0000 C=    0.0000
 XYZ=    4.4570   -7.8487    1.1623 Q=   -0.8340 A=    0.0000 R=    0.0000 C=    0.0000
 XYZ=    5.0029   -7.1421    1.5070 Q=    0.4170 A=    0.0000 R=    0.0000 C=    0.0000
 XYZ=    4.3043   -8.4222    1.9133 Q=    0.4170 A=    0.0000 R=    0.0000 C=    0.0000
 XYZ=  -11.7170  -15.1930  -22.4150 Q=   -0.8340 A=    0.0000 R=    0.0000 C=    0.0000
 XYZ=  -10.8950  -15.6220  -22.1770 Q=    0.4170 A=    0.0000 R=    0.0000 C=    0.0000
 XYZ=  -11.4520  -14.3420  -22.7650 Q=    0.4170 A=    0.0000 R=    0.0000 C=    0.0000
 XYZ=    1.6120    1.6970    4.6020 Q=   -0.8340 A=    0.0000 R=    0.0000 C=    0.0000
 XYZ=    0.9040    2.2290    4.2400 Q=    0.4170 A=    0.0000 R=    0.0000 C=    0.0000
 XYZ=    2.3960    1.9920    4.1390 Q=    0.4170 A=    0.0000 R=    0.0000 C=    0.0000
 XYZ=   -8.3740  -28.0310   -8.1660 Q=   -0.8340 A=    0.0000 R=    0.0000 C=    0.0000
 XYZ=   -8.5540  -28.9650   -8.2740 Q=    0.4170 A=    0.0000 R=    0.0000 C=    0.0000
 XYZ=   -8.1760  -27.7210   -9.0500 Q=    0.4170 A=    0.0000 R=    0.0000 C=    0.0000
 XYZ=    2.7315  -14.5739   -4.1861 Q=   -0.8340 A=    0.0000 R=    0.0000 C=    0.0000
 XYZ=    2.1450  -15.2737   -4.4733 Q=    0.4170 A=    0.0000 R=    0.0000 C=    0.0000
 XYZ=    3.1309  -14.9096   -3.3836 Q=    0.4170 A=    0.0000 R=    0.0000 C=    0.0000
 XYZ=  -25.3650   -8.8600   -6.2720 Q=   -0.8340 A=    0.0000 R=    0.0000 C=    0.0000
 XYZ=  -25.4420   -7.9900   -5.8800 Q=    0.4170 A=    0.0000 R=    0.0000 C=    0.0000
 XYZ=  -26.1970   -8.9930   -6.7260 Q=    0.4170 A=    0.0000 R=    0.0000 C=    0.0000
 XYZ=  -19.3960  -16.6070    9.0060 Q=   -0.8340 A=    0.0000 R=    0.0000 C=    0.0000
 XYZ=  -19.8660  -15.9520    9.5210 Q=    0.4170 A=    0.0000 R=    0.0000 C=    0.0000
 XYZ=  -19.2530  -17.3330    9.6130 Q=    0.4170 A=    0.0000 R=    0.0000 C=    0.0000
 XYZ=    2.7184  -11.8977  -16.9842 Q=   -0.8340 A=    0.0000 R=    0.0000 C=    0.0000
 XYZ=    3.5363  -11.8392  -17.4779 Q=    0.4170 A=    0.0000 R=    0.0000 C=    0.0000
 XYZ=    2.8609  -11.3431  -16.2171 Q=    0.4170 A=    0.0000 R=    0.0000 C=    0.0000
 XYZ=    7.3458  -18.6974  -11.8984 Q=   -0.8340 A=    0.0000 R=    0.0000 C=    0.0000
 XYZ=    7.8291  -19.4600  -11.5805 Q=    0.4170 A=    0.0000 R=    0.0000 C=    0.0000
 XYZ=    6.8980  -18.3571  -11.1238 Q=    0.4170 A=    0.0000 R=    0.0000 C=    0.0000
 XYZ=  -11.5605   -4.6412  -19.2430 Q=   -0.8340 A=    0.0000 R=    0.0000 C=    0.0000
 XYZ=  -12.0415   -5.3478  -18.8123 Q=    0.4170 A=    0.0000 R=    0.0000 C=    0.0000
 XYZ=  -12.1276   -3.8753  -19.1533 Q=    0.4170 A=    0.0000 R=    0.0000 C=    0.0000
 XYZ=  -15.9988   -7.0736  -17.1194 Q=   -0.8340 A=    0.0000 R=    0.0000 C=    0.0000
 XYZ=  -16.6133   -6.4408  -17.4912 Q=    0.4170 A=    0.0000 R=    0.0000 C=    0.0000
 XYZ=  -16.1696   -7.0494  -16.1779 Q=    0.4170 A=    0.0000 R=    0.0000 C=    0.0000
 XYZ=    1.3090    6.4170  -15.4410 Q=   -0.8340 A=    0.0000 R=    0.0000 C=    0.0000
 XYZ=    2.2140    6.1390  -15.5840 Q=    0.4170 A=    0.0000 R=    0.0000 C=    0.0000
 XYZ=    0.9860    6.6390  -16.3150 Q=    0.4170 A=    0.0000 R=    0.0000 C=    0.0000
 XYZ=  -10.3324    3.4868    2.4877 Q=   -0.8340 A=    0.0000 R=    0.0000 C=    0.0000
 XYZ=   -9.4146    3.6502    2.7049 Q=    0.4170 A=    0.0000 R=    0.0000 C=    0.0000
 XYZ=  -10.5702    2.7214    3.0111 Q=    0.4170 A=    0.0000 R=    0.0000 C=    0.0000
 XYZ=  -15.4610  -21.2570    4.8910 Q=   -0.8340 A=    0.0000 R=    0.0000 C=    0.0000
 XYZ=  -15.3080  -20.3370    5.1070 Q=    0.4170 A=    0.0000 R=    0.0000 C=    0.0000
 XYZ=  -15.5640  -21.6890    5.7390 Q=    0.4170 A=    0.0000 R=    0.0000 C=    0.0000
 XYZ=   -5.6885    0.5663   -3.5957 Q=   -0.8340 A=    0.0000 R=    0.0000 C=    0.0000
 XYZ=   -4.7532    0.7462   -3.5009 Q=    0.4170 A=    0.0000 R=    0.0000 C=    0.0000
 XYZ=   -5.8506   -0.1754   -3.0127 Q=    0.4170 A=    0.0000 R=    0.0000 C=    0.0000
 XYZ=   -0.7239  -12.3103    9.8992 Q=   -0.8340 A=    0.0000 R=    0.0000 C=    0.0000
 XYZ=   -0.9480  -12.6602   10.7615 Q=    0.4170 A=    0.0000 R=    0.0000 C=    0.0000
 XYZ=   -1.4140  -11.6740    9.7116 Q=    0.4170 A=    0.0000 R=    0.0000 C=    0.0000
 XYZ=  -16.4909   -8.1801    4.2373 Q=   -0.8340 A=    0.0000 R=    0.0000 C=    0.0000
 XYZ=  -17.0168   -7.5754    3.7140 Q=    0.4170 A=    0.0000 R=    0.0000 C=    0.0000
 XYZ=  -16.6902   -7.9483    5.1444 Q=    0.4170 A=    0.0000 R=    0.0000 C=    0.0000
 XYZ=    0.1187   -2.0823   -3.6126 Q=   -0.8340 A=    0.0000 R=    0.0000 C=    0.0000
 XYZ=    0.0573   -2.9880   -3.3089 Q=    0.4170 A=    0.0000 R=    0.0000 C=    0.0000
 XYZ=   -0.1867   -2.1120   -4.5193 Q=    0.4170 A=    0.0000 R=    0.0000 C=    0.0000
 XYZ=   -8.8505   -9.3792   -5.7119 Q=   -0.8340 A=    0.0000 R=    0.0000 C=    0.0000
 XYZ=   -8.8580  -10.0562   -5.0352 Q=    0.4170 A=    0.0000 R=    0.0000 C=    0.0000
 XYZ=   -9.5257   -8.7585   -5.4379 Q=    0.4170 A=    0.0000 R=    0.0000 C=    0.0000
 XYZ=    2.7102  -11.3361    2.2640 Q=   -0.8340 A=    0.0000 R=    0.0000 C=    0.0000
 XYZ=    2.8327  -10.4061    2.4551 Q=    0.4170 A=    0.0000 R=    0.0000 C=    0.0000
 XYZ=    3.5409  -11.7431    2.5101 Q=    0.4170 A=    0.0000 R=    0.0000 C=    0.0000
 XYZ=  -15.8046   -5.6746   -2.6520 Q=   -0.8340 A=    0.0000 R=    0.0000 C=    0.0000
 XYZ=  -15.9657   -5.7353   -3.5936 Q=    0.4170 A=    0.0000 R=    0.0000 C=    0.0000
 XYZ=  -15.5661   -4.7589   -2.5078 Q=    0.4170 A=    0.0000 R=    0.0000 C=    0.0000
 XYZ=  -10.3427   -6.6211    4.5716 Q=   -0.8340 A=    0.0000 R=    0.0000 C=    0.0000
 XYZ=   -9.7460   -7.0231    5.2030 Q=    0.4170 A=    0.0000 R=    0.0000 C=    0.0000
 XYZ=  -10.4527   -5.7229    4.8835 Q=    0.4170 A=    0.0000 R=    0.0000 C=    0.0000
 XYZ=   -5.8691   -3.3235    6.4451 Q=   -0.8340 A=    0.0000 R=    0.0000 C=    0.0000
 XYZ=   -6.4373   -3.9874    6.0544 Q=    0.4170 A=    0.0000 R=    0.0000 C=    0.0000
 XYZ=   -6.2146   -2.4915    6.1216 Q=    0.4170 A=    0.0000 R=    0.0000 C=    0.0000
 XYZ=  -17.4910  -15.4660   12.6730 Q=   -0.8340 A=    0.0000 R=    0.0000 C=    0.0000
 XYZ=  -16.7190  -15.7240   12.1700 Q=    0.4170 A=    0.0000 R=    0.0000 C=    0.0000
 XYZ=  -17.5990  -14.5340   12.4870 Q=    0.4170 A=    0.0000 R=    0.0000 C=    0.0000
 XYZ=   -8.6000    0.1760   10.7290 Q=   -0.8340 A=    0.0000 R=    0.0000 C=    0.0000
 XYZ=   -8.4150   -0.6320   11.2070 Q=    0.4170 A=    0.0000 R=    0.0000 C=    0.0000
 XYZ=   -9.5520    0.2650   10.7670 Q=    0.4170 A=    0.0000 R=    0.0000 C=    0.0000
 XYZ=    6.0930   -3.7030    5.7490 Q=   -0.8340 A=    0.0000 R=    0.0000 C=    0.0000
 XYZ=    5.1680   -3.9240    5.8550 Q=    0.4170 A=    0.0000 R=    0.0000 C=    0.0000
 XYZ=    6.1690   -3.4210    4.8370 Q=    0.4170 A=    0.0000 R=    0.0000 C=    0.0000
 XYZ=  -17.5930    0.9160    2.9500 Q=   -0.8340 A=    0.0000 R=    0.0000 C=    0.0000
 XYZ=  -18.2470    0.3290    2.5710 Q=    0.4170 A=    0.0000 R=    0.0000 C=    0.0000
 XYZ=  -16.7980    0.7490    2.4430 Q=    0.4170 A=    0.0000 R=    0.0000 C=    0.0000
 XYZ=  -19.5670   -0.6120    1.9540 Q=   -0.8340 A=    0.0000 R=    0.0000 C=    0.0000
 XYZ=  -20.3530   -0.2250    2.3390 Q=    0.4170 A=    0.0000 R=    0.0000 C=    0.0000
 XYZ=  -19.6400   -1.5470    2.1450 Q=    0.4170 A=    0.0000 R=    0.0000 C=    0.0000
 XYZ=    1.4040  -21.4300    9.6810 Q=   -0.8340 A=    0.0000 R=    0.0000 C=    0.0000
 XYZ=    0.6470  -21.9580    9.9350 Q=    0.4170 A=    0.0000 R=    0.0000 C=    0.0000
 XYZ=    1.0260  -20.6310    9.3130 Q=    0.4170 A=    0.0000 R=    0.0000 C=    0.0000
 XYZ=   -2.0240  -26.0070    5.4800 Q=   -0.8340 A=    0.0000 R=    0.0000 C=    0.0000
 XYZ=   -1.2350  -25.4790    5.6040 Q=    0.4170 A=    0.0000 R=    0.0000 C=    0.0000
 XYZ=   -2.5400  -25.5200    4.8380 Q=    0.4170 A=    0.0000 R=    0.0000 C=    0.0000
 XYZ=  -10.0860  -23.8170    7.2300 Q=   -0.8340 A=    0.0000 R=    0.0000 C=    0.0000
 XYZ=  -10.7560  -23.9360    6.5570 Q=    0.4170 A=    0.0000 R=    0.0000 C=    0.0000
 XYZ=   -9.5910  -23.0490    6.9440 Q=    0.4170 A=    0.0000 R=    0.0000 C=    0.0000
 XYZ=   -3.3370   -2.0370   13.9800 Q=   -0.8340 A=    0.0000 R=    0.0000 C=    0.0000
 XYZ=   -3.3660   -2.9850   14.1100 Q=    0.4170 A=    0.0000 R=    0.0000 C=    0.0000
 XYZ=   -4.1360   -1.8370   13.4910 Q=    0.4170 A=    0.0000 R=    0.0000 C=    0.0000
 XYZ=  -20.9308   -8.2697   -3.3630 Q=   -0.8340 A=    0.0000 R=    0.0000 C=    0.0000
 XYZ=  -20.1768   -8.8573   -3.4114 Q=    0.4170 A=    0.0000 R=    0.0000 C=    0.0000
 XYZ=  -21.5768   -8.7502   -2.8452 Q=    0.4170 A=    0.0000 R=    0.0000 C=    0.0000
 XYZ=   -4.1480    2.7410  -18.7640 Q=   -0.8340 A=    0.0000 R=    0.0000 C=    0.0000
 XYZ=   -3.7730    1.9060  -19.0450 Q=    0.4170 A=    0.0000 R=    0.0000 C=    0.0000
 XYZ=   -5.0790    2.6680  -18.9720 Q=    0.4170 A=    0.0000 R=    0.0000 C=    0.0000
 XYZ=    3.9840  -29.0590   -1.9990 Q=   -0.8340 A=    0.0000 R=    0.0000 C=    0.0000
 XYZ=    4.2030  -29.2690   -1.0910 Q=    0.4170 A=    0.0000 R=    0.0000 C=    0.0000
 XYZ=    3.1010  -28.6910   -1.9530 Q=    0.4170 A=    0.0000 R=    0.0000 C=    0.0000
 XYZ=   -6.8710   -9.7307   -1.3666 Q=   -0.8340 A=    0.0000 R=    0.0000 C=    0.0000
 XYZ=   -6.5117   -9.2119   -2.0864 Q=    0.4170 A=    0.0000 R=    0.0000 C=    0.0000
 XYZ=   -6.7271  -10.6394   -1.6306 Q=    0.4170 A=    0.0000 R=    0.0000 C=    0.0000
 XYZ=  -20.2620  -12.1820   10.5730 Q=   -0.8340 A=    0.0000 R=    0.0000 C=    0.0000
 XYZ=  -19.6420  -11.4660   10.4320 Q=    0.4170 A=    0.0000 R=    0.0000 C=    0.0000
 XYZ=  -21.0360  -11.9310   10.0690 Q=    0.4170 A=    0.0000 R=    0.0000 C=    0.0000
 XYZ=    0.6780  -10.3710   15.2920 Q=   -0.8340 A=    0.0000 R=    0.0000 C=    0.0000
 XYZ=    1.1940   -9.7400   14.7890 Q=    0.4170 A=    0.0000 R=    0.0000 C=    0.0000
 XYZ=   -0.0710  -10.5700   14.7300 Q=    0.4170 A=    0.0000 R=    0.0000 C=    0.0000
 XYZ=   -2.6820    7.1950  -14.2660 Q=   -0.8340 A=    0.0000 R=    0.0000 C=    0.0000
 XYZ=   -2.3240    7.6690  -13.5150 Q=    0.4170 A=    0.0000 R=    0.0000 C=    0.0000
 XYZ=   -2.6120    7.8110  -14.9950 Q=    0.4170 A=    0.0000 R=    0.0000 C=    0.0000
 XYZ=   -2.5120    5.6755    0.4693 Q=   -0.8340 A=    0.0000 R=    0.0000 C=    0.0000
 XYZ=   -3.2306    5.8909    1.0638 Q=    0.4170 A=    0.0000 R=    0.0000 C=    0.0000
 XYZ=   -2.6068    6.2933   -0.2556 Q=    0.4170 A=    0.0000 R=    0.0000 C=    0.0000
 XYZ=  -21.0490    4.3520   -5.4650 Q=   -0.8340 A=    0.0000 R=    0.0000 C=    0.0000
 XYZ=  -21.4380    4.5330   -4.6090 Q=    0.4170 A=    0.0000 R=    0.0000 C=    0.0000
 XYZ=  -21.2240    3.4240   -5.6170 Q=    0.4170 A=    0.0000 R=    0.0000 C=    0.0000
 XYZ=    4.6680   -3.0370  -21.6000 Q=   -0.8340 A=    0.0000 R=    0.0000 C=    0.0000
 XYZ=    4.7620   -3.9880  -21.6580 Q=    0.4170 A=    0.0000 R=    0.0000 C=    0.0000
 XYZ=    4.9800   -2.8180  -20.7220 Q=    0.4170 A=    0.0000 R=    0.0000 C=    0.0000
 XYZ=  -12.4155   -3.8038  -10.5853 Q=   -0.8340 A=    0.0000 R=    0.0000 C=    0.0000
 XYZ=  -13.2317   -4.1825  -10.2588 Q=    0.4170 A=    0.0000 R=    0.0000 C=    0.0000
 XYZ=  -12.5230   -3.7855  -11.5363 Q=    0.4170 A=    0.0000 R=    0.0000 C=    0.0000
 XYZ=  -23.3730  -19.8920   -9.9050 Q=   -0.8340 A=    0.0000 R=    0.0000 C=    0.0000
 XYZ=  -22.5640  -20.4030   -9.8870 Q=    0.4170 A=    0.0000 R=    0.0000 C=    0.0000
 XYZ=  -23.1410  -19.0600   -9.4920 Q=    0.4170 A=    0.0000 R=    0.0000 C=    0.0000
 XYZ=    0.3357   -9.4116  -14.7282 Q=   -0.8340 A=    0.0000 R=    0.0000 C=    0.0000
 XYZ=    0.6695   -8.7407  -14.1327 Q=    0.4170 A=    0.0000 R=    0.0000 C=    0.0000
 XYZ=    0.9847  -10.1140  -14.6863 Q=    0.4170 A=    0.0000 R=    0.0000 C=    0.0000
 XYZ=  -11.9894  -10.9536    0.3543 Q=   -0.8340 A=    0.0000 R=    0.0000 C=    0.0000
 XYZ=  -11.9429  -10.7281   -0.5748 Q=    0.4170 A=    0.0000 R=    0.0000 C=    0.0000
 XYZ=  -11.8622  -10.1214    0.8099 Q=    0.4170 A=    0.0000 R=    0.0000 C=    0.0000
 XYZ=   -8.1880  -28.0300    0.0020 Q=   -0.8340 A=    0.0000 R=    0.0000 C=    0.0000
 XYZ=   -8.2620  -27.0780    0.0610 Q=    0.4170 A=    0.0000 R=    0.0000 C=    0.0000
 XYZ=   -8.6770  -28.3560    0.7570 Q=    0.4170 A=    0.0000 R=    0.0000 C=    0.0000
 XYZ=   -8.3120  -29.6280  -12.9200 Q=   -0.8340 A=    0.0000 R=    0.0000 C=    0.0000
 XYZ=   -8.1490  -30.3970  -13.4670 Q=    0.4170 A=    0.0000 R=    0.0000 C=    0.0000
 XYZ=   -8.4190  -28.9090  -13.5430 Q=    0.4170 A=    0.0000 R=    0.0000 C=    0.0000
 XYZ=  -12.9180    1.6730    7.8890 Q=   -0.8340 A=    0.0000 R=    0.0000 C=    0.0000
 XYZ=  -13.7500    1.9050    8.3020 Q=    0.4170 A=    0.0000 R=    0.0000 C=    0.0000
 XYZ=  -12.9800    2.0320    7.0040 Q=    0.4170 A=    0.0000 R=    0.0000 C=    0.0000
 XYZ=  -23.0290  -13.8960    5.3640 Q=   -0.8340 A=    0.0000 R=    0.0000 C=    0.0000
 XYZ=  -23.7770  -13.9570    4.7700 Q=    0.4170 A=    0.0000 R=    0.0000 C=    0.0000
 XYZ=  -22.8850  -14.7940    5.6620 Q=    0.4170 A=    0.0000 R=    0.0000 C=    0.0000
 XYZ=  -24.3620  -20.6050   -0.0660 Q=   -0.8340 A=    0.0000 R=    0.0000 C=    0.0000
 XYZ=  -23.8680  -20.3730    0.7200 Q=    0.4170 A=    0.0000 R=    0.0000 C=    0.0000
 XYZ=  -24.4960  -19.7730   -0.5190 Q=    0.4170 A=    0.0000 R=    0.0000 C=    0.0000
 XYZ=    7.6638  -21.1972   -6.0696 Q=   -0.8340 A=    0.0000 R=    0.0000 C=    0.0000
 XYZ=    8.0641  -20.9476   -5.2367 Q=    0.4170 A=    0.0000 R=    0.0000 C=    0.0000
 XYZ=    6.7223  -21.1157   -5.9174 Q=    0.4170 A=    0.0000 R=    0.0000 C=    0.0000
 XYZ=  -13.9746    1.3079  -12.6079 Q=   -0.8340 A=    0.0000 R=    0.0000 C=    0.0000
 XYZ=  -14.3691    1.6311  -13.4179 Q=    0.4170 A=    0.0000 R=    0.0000 C=    0.0000
 XYZ=  -13.0315    1.3761  -12.7564 Q=    0.4170 A=    0.0000 R=    0.0000 C=    0.0000
 XYZ=  -14.8580    2.0090  -20.8300 Q=   -0.8340 A=    0.0000 R=    0.0000 C=    0.0000
 XYZ=  -14.0230    1.7280  -21.2040 Q=    0.4170 A=    0.0000 R=    0.0000 C=    0.0000
 XYZ=  -14.6720    2.1420  -19.9010 Q=    0.4170 A=    0.0000 R=    0.0000 C=    0.0000
 XYZ=   -9.9855  -18.6475   -0.4046 Q=   -0.8340 A=    0.0000 R=    0.0000 C=    0.0000
 XYZ=  -10.4797  -18.1653    0.2583 Q=    0.4170 A=    0.0000 R=    0.0000 C=    0.0000
 XYZ=  -10.6348  -18.8739   -1.0705 Q=    0.4170 A=    0.0000 R=    0.0000 C=    0.0000
 XYZ=  -14.4617    0.3201   -5.5138 Q=   -0.8340 A=    0.0000 R=    0.0000 C=    0.0000
 XYZ=  -15.0883    1.0394   -5.5926 Q=    0.4170 A=    0.0000 R=    0.0000 C=    0.0000
 XYZ=  -13.9525    0.3556   -6.3235 Q=    0.4170 A=    0.0000 R=    0.0000 C=    0.0000
 XYZ=  -20.6719  -11.9917   -8.9530 Q=   -0.8340 A=    0.0000 R=    0.0000 C=    0.0000
 XYZ=  -20.6701  -12.9251   -8.7409 Q=    0.4170 A=    0.0000 R=    0.0000 C=    0.0000
 XYZ=  -20.7423  -11.5530   -8.1052 Q=    0.4170 A=    0.0000 R=    0.0000 C=    0.0000
 XYZ=   -2.2690    4.4100  -14.8550 Q=   -0.8340 A=    0.0000 R=    0.0000 C=    0.0000
 XYZ=   -2.4540    4.1560  -15.7600 Q=    0.4170 A=    0.0000 R=    0.0000 C=    0.0000
 XYZ=   -2.4500    5.3500  -14.8280 Q=    0.4170 A=    0.0000 R=    0.0000 C=    0.0000
 XYZ=   -2.7490  -26.2750    2.2870 Q=   -0.8340 A=    0.0000 R=    0.0000 C=    0.0000
 XYZ=   -3.4630  -25.7260    2.6130 Q=    0.4170 A=    0.0000 R=    0.0000 C=    0.0000
 XYZ=   -3.0180  -27.1690    2.4990 Q=    0.4170 A=    0.0000 R=    0.0000 C=    0.0000
 XYZ=   -4.3000  -28.3430    5.8880 Q=   -0.8340 A=    0.0000 R=    0.0000 C=    0.0000
 XYZ=   -5.0030  -27.8190    6.2710 Q=    0.4170 A=    0.0000 R=    0.0000 C=    0.0000
 XYZ=   -3.4970  -27.9740    6.2570 Q=    0.4170 A=    0.0000 R=    0.0000 C=    0.0000
 XYZ=    5.5100   -8.5450   10.7390 Q=   -0.8340 A=    0.0000 R=    0.0000 C=    0.0000
 XYZ=    6.3520   -8.1410   10.9490 Q=    0.4170 A=    0.0000 R=    0.0000 C=    0.0000
 XYZ=    4.8700   -8.0370   11.2380 Q=    0.4170 A=    0.0000 R=    0.0000 C=    0.0000
 XYZ=  -12.1342  -24.6098  -11.2250 Q=   -0.8340 A=    0.0000 R=    0.0000 C=    0.0000
 XYZ=  -11.2443  -24.9111  -11.4082 Q=    0.4170 A=    0.0000 R=    0.0000 C=    0.0000
 XYZ=  -12.4143  -24.1823  -12.0343 Q=    0.4170 A=    0.0000 R=    0.0000 C=    0.0000
 XYZ=    9.6550   -6.9970    2.5790 Q=   -0.8340 A=    0.0000 R=    0.0000 C=    0.0000
 XYZ=    9.8380   -7.5340    1.8080 Q=    0.4170 A=    0.0000 R=    0.0000 C=    0.0000
 XYZ=    9.7230   -7.6040    3.3160 Q=    0.4170 A=    0.0000 R=    0.0000 C=    0.0000
 XYZ=    3.7140  -13.5430   10.9360 Q=   -0.8340 A=    0.0000 R=    0.0000 C=    0.0000
 XYZ=    3.6540  -12.7150   10.4600 Q=    0.4170 A=    0.0000 R=    0.0000 C=    0.0000
 XYZ=    4.0570  -14.1650   10.2940 Q=    0.4170 A=    0.0000 R=    0.0000 C=    0.0000
 XYZ=  -23.0860  -12.2940  -18.5540 Q=   -0.8340 A=    0.0000 R=    0.0000 C=    0.0000
 XYZ=  -22.4140  -12.9750  -18.5280 Q=    0.4170 A=    0.0000 R=    0.0000 C=    0.0000
 XYZ=  -23.0630  -11.9010  -17.6820 Q=    0.4170 A=    0.0000 R=    0.0000 C=    0.0000
 XYZ=  -24.9650  -14.7890   -9.7490 Q=   -0.8340 A=    0.0000 R=    0.0000 C=    0.0000
 XYZ=  -25.8500  -14.5790  -10.0470 Q=    0.4170 A=    0.0000 R=    0.0000 C=    0.0000
 XYZ=  -24.3950  -14.4740  -10.4500 Q=    0.4170 A=    0.0000 R=    0.0000 C=    0.0000
 XYZ=  -19.3905   -3.7940    0.2390 Q=   -0.8340 A=    0.0000 R=    0.0000 C=    0.0000
 XYZ=  -20.1077   -3.5982   -0.3639 Q=    0.4170 A=    0.0000 R=    0.0000 C=    0.0000
 XYZ=  -18.9330   -4.5320   -0.1639 Q=    0.4170 A=    0.0000 R=    0.0000 C=    0.0000
 XYZ=  -19.6274  -10.1416   -5.3221 Q=   -0.8340 A=    0.0000 R=    0.0000 C=    0.0000
 XYZ=  -18.7497  -10.2493   -5.6887 Q=    0.4170 A=    0.0000 R=    0.0000 C=    0.0000
 XYZ=  -20.1670   -9.8741   -6.0660 Q=    0.4170 A=    0.0000 R=    0.0000 C=    0.0000
 XYZ=   -4.8010  -20.5490  -23.9420 Q=   -0.8340 A=    0.0000 R=    0.0000 C=    0.0000
 XYZ=   -5.5920  -20.6450  -23.4110 Q=    0.4170 A=    0.0000 R=    0.0000 C=    0.0000
 XYZ=   -4.9420  -21.1320  -24.6880 Q=    0.4170 A=    0.0000 R=    0.0000 C=    0.0000
 XYZ=  -12.5207  -18.4243  -15.6139 Q=   -0.8340 A=    0.0000 R=    0.0000 C=    0.0000
 XYZ=  -11.5879  -18.2254  -15.5326 Q=    0.4170 A=    0.0000 R=    0.0000 C=    0.0000
 XYZ=  -12.5716  -19.3762  -15.5264 Q=    0.4170 A=    0.0000 R=    0.0000 C=    0.0000
 XYZ=   -5.4711   -2.7408   -1.1295 Q=   -0.8340 A=    0.0000 R=    0.0000 C=    0.0000
 XYZ=   -5.1965   -3.3537   -0.4474 Q=    0.4170 A=    0.0000 R=    0.0000 C=    0.0000
 XYZ=   -6.4083   -2.9038   -1.2355 Q=    0.4170 A=    0.0000 R=    0.0000 C=    0.0000
 XYZ=    5.9706  -10.5754   -5.2442 Q=   -0.8340 A=    0.0000 R=    0.0000 C=    0.0000
 XYZ=    6.0337  -10.8214   -4.3213 Q=    0.4170 A=    0.0000 R=    0.0000 C=    0.0000
 XYZ=    6.6078   -9.8687   -5.3483 Q=    0.4170 A=    0.0000 R=    0.0000 C=    0.0000
 XYZ=  -17.8544   -7.1170    2.2069 Q=   -0.8340 A=    0.0000 R=    0.0000 C=    0.0000
 XYZ=  -17.8911   -7.9507    1.7381 Q=    0.4170 A=    0.0000 R=    0.0000 C=    0.0000
 XYZ=  -17.4748   -6.5041    1.5773 Q=    0.4170 A=    0.0000 R=    0.0000 C=    0.0000
 XYZ=  -26.0000  -12.6050   -3.2670 Q=   -0.8340 A=    0.0000 R=    0.0000 C=    0.0000
 XYZ=  -26.3100  -13.4720   -3.5300 Q=    0.4170 A=    0.0000 R=    0.0000 C=    0.0000
 XYZ=  -25.8720  -12.1360   -4.0910 Q=    0.4170 A=    0.0000 R=    0.0000 C=    0.0000
 XYZ=  -20.3580  -14.5385   -5.7909 Q=   -0.8340 A=    0.0000 R=    0.0000 C=    0.0000
 XYZ=  -20.0749  -15.4266   -5.5730 Q=    0.4170 A=    0.0000 R=    0.0000 C=    0.0000
 XYZ=  -20.8162  -14.6309   -6.6262 Q=    0.4170 A=    0.0000 R=    0.0000 C=    0.0000
 XYZ=  -23.3750   -8.5470   -0.0180 Q=   -0.8340 A=    0.0000 R=    0.0000 C=    0.0000
 XYZ=  -23.5100   -8.7290   -0.9480 Q=    0.4170 A=    0.0000 R=    0.0000 C=    0.0000
 XYZ=  -23.4410   -9.4020    0.4070 Q=    0.4170 A=    0.0000 R=    0.0000 C=    0.0000
 XYZ=  -23.7090  -13.2800   -7.9040 Q=   -0.8340 A=    0.0000 R=    0.0000 C=    0.0000
 XYZ=  -24.0080  -13.4850   -7.0180 Q=    0.4170 A=    0.0000 R=    0.0000 C=    0.0000
 XYZ=  -24.3560  -13.6910   -8.4770 Q=    0.4170 A=    0.0000 R=    0.0000 C=    0.0000
 XYZ=  -23.6590   -9.0910   -2.6920 Q=   -0.8340 A=    0.0000 R=    0.0000 C=    0.0000
 XYZ=  -23.3180   -9.7410   -3.3050 Q=    0.4170 A=    0.0000 R=    0.0000 C=    0.0000
 XYZ=  -24.3510   -8.6420   -3.1770 Q=    0.4170 A=    0.0000 R=    0.0000 C=    0.0000
 XYZ=    4.9150  -14.0280    8.2560 Q=   -0.8340 A=    0.0000 R=    0.0000 C=    0.0000
 XYZ=    4.1670  -13.5140    7.9510 Q=    0.4170 A=    0.0000 R=    0.0000 C=    0.0000
 XYZ=    5.6700  -13.4540    8.1260 Q=    0.4170 A=    0.0000 R=    0.0000 C=    0.0000
 XYZ=  -13.0403  -22.6352   -9.3012 Q=   -0.8340 A=    0.0000 R=    0.0000 C=    0.0000
 XYZ=  -12.6246  -21.7757   -9.3687 Q=    0.4170 A=    0.0000 R=    0.0000 C=    0.0000
 XYZ=  -12.3830  -23.2465   -9.6336 Q=    0.4170 A=    0.0000 R=    0.0000 C=    0.0000
 XYZ=  -14.4970   -2.2930    9.1850 Q=   -0.8340 A=    0.0000 R=    0.0000 C=    0.0000
 XYZ=  -14.5760   -1.4150    9.5570 Q=    0.4170 A=    0.0000 R=    0.0000 C=    0.0000
 XYZ=  -15.2040   -2.3460    8.5420 Q=    0.4170 A=    0.0000 R=    0.0000 C=    0.0000
 XYZ=  -11.3290  -22.8700   10.1860 Q=   -0.8340 A=    0.0000 R=    0.0000 C=    0.0000
 XYZ=  -10.9070  -22.2050   10.7290 Q=    0.4170 A=    0.0000 R=    0.0000 C=    0.0000
 XYZ=  -10.6260  -23.4800    9.9620 Q=    0.4170 A=    0.0000 R=    0.0000 C=    0.0000
 XYZ=  -16.0545  -14.1390  -19.7905 Q=   -0.8340 A=    0.0000 R=    0.0000 C=    0.0000
 XYZ=  -16.5947  -13.4751  -20.2190 Q=    0.4170 A=    0.0000 R=    0.0000 C=    0.0000
 XYZ=  -15.7233  -13.7073  -19.0030 Q=    0.4170 A=    0.0000 R=    0.0000 C=    0.0000
 XYZ=   -2.0060  -23.6130  -17.4660 Q=   -0.8340 A=    0.0000 R=    0.0000 C=    0.0000
 XYZ=   -2.9610  -23.5570  -17.4660 Q=    0.4170 A=    0.0000 R=    0.0000 C=    0.0000
 XYZ=   -1.7510  -23.3820  -16.5730 Q=    0.4170 A=    0.0000 R=    0.0000 C=    0.0000
 XYZ=  -14.9600   -0.3710    5.3140 Q=   -0.8340 A=    0.0000 R=    0.0000 C=    0.0000
 XYZ=  -15.1870   -0.4510    4.3870 Q=    0.4170 A=    0.0000 R=    0.0000 C=    0.0000
 XYZ=  -15.4720    0.3750    5.6230 Q=    0.4170 A=    0.0000 R=    0.0000 C=    0.0000
 XYZ=  -21.4650   -3.4030   -2.2850 Q=   -0.8340 A=    0.0000 R=    0.0000 C=    0.0000
 XYZ=  -22.2930   -3.7540   -1.9570 Q=    0.4170 A=    0.0000 R=    0.0000 C=    0.0000
 XYZ=  -21.5200   -3.5080   -3.2350 Q=    0.4170 A=    0.0000 R=    0.0000 C=    0.0000
 XYZ=  -12.4657  -11.6958   -2.4888 Q=   -0.8340 A=    0.0000 R=    0.0000 C=    0.0000
 XYZ=  -13.3510  -11.3324   -2.4670 Q=    0.4170 A=    0.0000 R=    0.0000 C=    0.0000
 XYZ=  -12.5408  -12.5378   -2.0398 Q=    0.4170 A=    0.0000 R=    0.0000 C=    0.0000
 XYZ=   -6.1020  -18.1060  -23.3830 Q=   -0.8340 A=    0.0000 R=    0.0000 C=    0.0000
 XYZ=   -5.2600  -18.5080  -23.5950 Q=    0.4170 A=    0.0000 R=    0.0000 C=    0.0000
 XYZ=   -5.8740  -17.2630  -22.9920 Q=    0.4170 A=    0.0000 R=    0.0000 C=    0.0000
 XYZ=  -11.0856   -5.8849   11.0040 Q=   -0.8340 A=    0.0000 R=    0.0000 C=    0.0000
 XYZ=  -10.5184   -6.5540   11.3870 Q=    0.4170 A=    0.0000 R=    0.0000 C=    0.0000
 XYZ=  -10.5477   -5.4725   10.3281 Q=    0.4170 A=    0.0000 R=    0.0000 C=    0.0000
 XYZ=    5.6119    1.9993   -3.3674 Q=   -0.8340 A=    0.0000 R=    0.0000 C=    0.0000
 XYZ=    5.2660    2.2611   -4.2206 Q=    0.4170 A=    0.0000 R=    0.0000 C=    0.0000
 XYZ=    4.8618    2.0587   -2.7758 Q=    0.4170 A=    0.0000 R=    0.0000 C=    0.0000
 XYZ=    1.2069   -8.3606    1.8416 Q=   -0.8340 A=    0.0000 R=    0.0000 C=    0.0000
 XYZ=    2.1277   -8.2055    1.6311 Q=    0.4170 A=    0.0000 R=    0.0000 C=    0.0000
 XYZ=    0.9301   -7.5697    2.3043 Q=    0.4170 A=    0.0000 R=    0.0000 C=    0.0000
 XYZ=   -9.7554  -25.5976   -1.5334 Q=   -0.8340 A=    0.0000 R=    0.0000 C=    0.0000
 XYZ=   -9.3477  -24.9982   -2.1584 Q=    0.4170 A=    0.0000 R=    0.0000 C=    0.0000
 XYZ=   -9.1871  -25.5651   -0.7639 Q=    0.4170 A=    0.0000 R=    0.0000 C=    0.0000
 XYZ=  -16.5887  -17.7981  -14.3530 Q=   -0.8340 A=    0.0000 R=    0.0000 C=    0.0000
 XYZ=  -17.1456  -17.2284  -14.8837 Q=    0.4170 A=    0.0000 R=    0.0000 C=    0.0000
 XYZ=  -15.7282  -17.3793  -14.3736 Q=    0.4170 A=    0.0000 R=    0.0000 C=    0.0000
 XYZ=   -7.0216  -25.4212   -9.9080 Q=   -0.8340 A=    0.0000 R=    0.0000 C=    0.0000
 XYZ=   -7.0490  -26.3727  -10.0089 Q=    0.4170 A=    0.0000 R=    0.0000 C=    0.0000
 XYZ=   -6.9250  -25.2825   -8.9659 Q=    0.4170 A=    0.0000 R=    0.0000 C=    0.0000
 XYZ=   -9.6820  -14.0180  -25.3720 Q=   -0.8340 A=    0.0000 R=    0.0000 C=    0.0000
 XYZ=  -10.2470  -14.7900  -25.4150 Q=    0.4170 A=    0.0000 R=    0.0000 C=    0.0000
 XYZ=   -8.8010  -14.3720  -25.2510 Q=    0.4170 A=    0.0000 R=    0.0000 C=    0.0000
 XYZ=   -7.6120  -11.3210  -25.8530 Q=   -0.8340 A=    0.0000 R=    0.0000 C=    0.0000
 XYZ=   -8.4710  -11.7420  -25.9060 Q=    0.4170 A=    0.0000 R=    0.0000 C=    0.0000
 XYZ=   -7.0810  -11.9260  -25.3360 Q=    0.4170 A=    0.0000 R=    0.0000 C=    0.0000
 XYZ=   -4.7890   -0.0638   -0.6704 Q=   -0.8340 A=    0.0000 R=    0.0000 C=    0.0000
 XYZ=   -3.8411   -0.1910   -0.7110 Q=    0.4170 A=    0.0000 R=    0.0000 C=    0.0000
 XYZ=   -5.1548   -0.9353   -0.8220 Q=    0.4170 A=    0.0000 R=    0.0000 C=    0.0000
 XYZ=  -16.9180  -12.1650    8.7730 Q=   -0.8340 A=    0.0000 R=    0.0000 C=    0.0000
 XYZ=  -17.7100  -12.6850    8.6340 Q=    0.4170 A=    0.0000 R=    0.0000 C=    0.0000
 XYZ=  -17.1940  -11.4620    9.3610 Q=    0.4170 A=    0.0000 R=    0.0000 C=    0.0000
 XYZ=   -8.3813   -7.4831  -10.7112 Q=   -0.8340 A=    0.0000 R=    0.0000 C=    0.0000
 XYZ=   -8.3551   -7.0390   -9.8637 Q=    0.4170 A=    0.0000 R=    0.0000 C=    0.0000
 XYZ=   -8.7154   -6.8225  -11.3180 Q=    0.4170 A=    0.0000 R=    0.0000 C=    0.0000
 XYZ=   -6.7019  -13.4893    1.4623 Q=   -0.8340 A=    0.0000 R=    0.0000 C=    0.0000
 XYZ=   -6.3526  -12.6154    1.2875 Q=    0.4170 A=    0.0000 R=    0.0000 C=    0.0000
 XYZ=   -6.3440  -13.7240    2.3185 Q=    0.4170 A=    0.0000 R=    0.0000 C=    0.0000
 XYZ=    1.4160    7.8370   -6.9120 Q=   -0.8340 A=    0.0000 R=    0.0000 C=    0.0000
 XYZ=    0.6470    7.2940   -6.7360 Q=    0.4170 A=    0.0000 R=    0.0000 C=    0.0000
 XYZ=    1.3350    8.0750   -7.8360 Q=    0.4170 A=    0.0000 R=    0.0000 C=    0.0000
 XYZ=   -8.8010    3.0050   10.5290 Q=   -0.8340 A=    0.0000 R=    0.0000 C=    0.0000
 XYZ=   -9.1590    3.5780   11.2070 Q=    0.4170 A=    0.0000 R=    0.0000 C=    0.0000
 XYZ=   -8.9020    2.1220   10.8850 Q=    0.4170 A=    0.0000 R=    0.0000 C=    0.0000
 XYZ=  -12.6097  -10.8470   -7.6562 Q=   -0.8340 A=    0.0000 R=    0.0000 C=    0.0000
 XYZ=  -11.8157  -11.3765   -7.5825 Q=    0.4170 A=    0.0000 R=    0.0000 C=    0.0000
 XYZ=  -12.5587  -10.2345   -6.9223 Q=    0.4170 A=    0.0000 R=    0.0000 C=    0.0000
 XYZ=   -5.2960  -23.8142  -11.3089 Q=   -0.8340 A=    0.0000 R=    0.0000 C=    0.0000
 XYZ=   -4.6466  -23.6716  -10.6202 Q=    0.4170 A=    0.0000 R=    0.0000 C=    0.0000
 XYZ=   -5.9700  -24.3535  -10.8953 Q=    0.4170 A=    0.0000 R=    0.0000 C=    0.0000
 XYZ=  -16.4660    5.7270  -10.8430 Q=   -0.8340 A=    0.0000 R=    0.0000 C=    0.0000
 XYZ=  -15.7700    6.3740  -10.9640 Q=    0.4170 A=    0.0000 R=    0.0000 C=    0.0000
 XYZ=  -17.1790    6.2170  -10.4330 Q=    0.4170 A=    0.0000 R=    0.0000 C=    0.0000
 XYZ=   -9.6977   -9.5440    5.3780 Q=   -0.8340 A=    0.0000 R=    0.0000 C=    0.0000
 XYZ=   -8.9939   -9.8292    4.7954 Q=    0.4170 A=    0.0000 R=    0.0000 C=    0.0000
 XYZ=   -9.3161   -8.8248    5.8813 Q=    0.4170 A=    0.0000 R=    0.0000 C=    0.0000
 XYZ=  -16.3430    3.5560    4.4200 Q=   -0.8340 A=    0.0000 R=    0.0000 C=    0.0000
 XYZ=  -17.0370    2.9930    4.0760 Q=    0.4170 A=    0.0000 R=    0.0000 C=    0.0000
 XYZ=  -15.7430    2.9550    4.8600 Q=    0.4170 A=    0.0000 R=    0.0000 C=    0.0000
 XYZ=  -18.9266   -0.5369   -7.0218 Q=   -0.8340 A=    0.0000 R=    0.0000 C=    0.0000
 XYZ=  -18.4877   -0.1084   -7.7566 Q=    0.4170 A=    0.0000 R=    0.0000 C=    0.0000
 XYZ=  -19.7274   -0.0290   -6.8913 Q=    0.4170 A=    0.0000 R=    0.0000 C=    0.0000
 XYZ=   -9.1062    1.8012   -2.3693 Q=   -0.8340 A=    0.0000 R=    0.0000 C=    0.0000
 XYZ=   -9.6311    1.8299   -1.5693 Q=    0.4170 A=    0.0000 R=    0.0000 C=    0.0000
 XYZ=   -8.8875    0.8759   -2.4797 Q=    0.4170 A=    0.0000 R=    0.0000 C=    0.0000
 XYZ=   -4.1146   -1.0201    4.6349 Q=   -0.8340 A=    0.0000 R=    0.0000 C=    0.0000
 XYZ=   -4.4464   -0.8031    3.7637 Q=    0.4170 A=    0.0000 R=    0.0000 C=    0.0000
 XYZ=   -4.7197   -0.5868    5.2369 Q=    0.4170 A=    0.0000 R=    0.0000 C=    0.0000
 XYZ=    5.0299   -6.2677   -9.8435 Q=   -0.8340 A=    0.0000 R=    0.0000 C=    0.0000
 XYZ=    5.7819   -6.1917   -9.2562 Q=    0.4170 A=    0.0000 R=    0.0000 C=    0.0000
 XYZ=    5.3781   -6.0508  -10.7084 Q=    0.4170 A=    0.0000 R=    0.0000 C=    0.0000
 XYZ=  -15.9180    2.9440  -14.3890 Q=   -0.8340 A=    0.0000 R=    0.0000 C=    0.0000
 XYZ=  -15.9700    3.1670  -15.3190 Q=    0.4170 A=    0.0000 R=    0.0000 C=    0.0000
 XYZ=  -15.4660    3.6870  -13.9900 Q=    0.4170 A=    0.0000 R=    0.0000 C=    0.0000
 XYZ=   -0.7224   -8.2767   -6.0062 Q=   -0.8340 A=    0.0000 R=    0.0000 C=    0.0000
 XYZ=   -0.7374   -9.1365   -6.4265 Q=    0.4170 A=    0.0000 R=    0.0000 C=    0.0000
 XYZ=   -1.5286   -7.8521   -6.2993 Q=    0.4170 A=    0.0000 R=    0.0000 C=    0.0000
 XYZ=   -4.8578   -3.3069  -13.0690 Q=   -0.8340 A=    0.0000 R=    0.0000 C=    0.0000
 XYZ=   -5.0515   -2.9118  -12.2189 Q=    0.4170 A=    0.0000 R=    0.0000 C=    0.0000
 XYZ=   -4.0874   -3.8523  -12.9102 Q=    0.4170 A=    0.0000 R=    0.0000 C=    0.0000
 XYZ=   -4.8447   -9.6298    5.7506 Q=   -0.8340 A=    0.0000 R=    0.0000 C=    0.0000
 XYZ=   -5.3892  -10.3803    5.9882 Q=    0.4170 A=    0.0000 R=    0.0000 C=    0.0000
 XYZ=   -5.0729   -8.9555    6.3905 Q=    0.4170 A=    0.0000 R=    0.0000 C=    0.0000
 XYZ=  -14.3720    1.9050  -18.0580 Q=   -0.8340 A=    0.0000 R=    0.0000 C=    0.0000
 XYZ=  -14.7730    2.7650  -17.9340 Q=    0.4170 A=    0.0000 R=    0.0000 C=    0.0000
 XYZ=  -13.4300    2.0700  -18.0090 Q=    0.4170 A=    0.0000 R=    0.0000 C=    0.0000
 XYZ=   -2.9010    8.4070   -0.8900 Q=   -0.8340 A=    0.0000 R=    0.0000 C=    0.0000
 XYZ=   -3.8010    8.3390   -1.2080 Q=    0.4170 A=    0.0000 R=    0.0000 C=    0.0000
 XYZ=   -2.9610    8.9720   -0.1190 Q=    0.4170 A=    0.0000 R=    0.0000 C=    0.0000
 XYZ=  -11.4980  -13.1520   15.1600 Q=   -0.8340 A=    0.0000 R=    0.0000 C=    0.0000
 XYZ=  -12.3500  -12.8610   15.4850 Q=    0.4170 A=    0.0000 R=    0.0000 C=    0.0000
 XYZ=  -10.8680  -12.5680   15.5820 Q=    0.4170 A=    0.0000 R=    0.0000 C=    0.0000
 XYZ=  -17.0210   -4.2750  -22.5720 Q=   -0.8340 A=    0.0000 R=    0.0000 C=    0.0000
 XYZ=  -17.6560   -4.1250  -21.8720 Q=    0.4170 A=    0.0000 R=    0.0000 C=    0.0000
 XYZ=  -16.6110   -5.1110  -22.3490 Q=    0.4170 A=    0.0000 R=    0.0000 C=    0.0000
 XYZ=  -14.8084  -20.9531  -14.0581 Q=   -0.8340 A=    0.0000 R=    0.0000 C=    0.0000
 XYZ=  -15.6257  -20.7099  -14.4928 Q=    0.4170 A=    0.0000 R=    0.0000 C=    0.0000
 XYZ=  -14.6722  -20.2688  -13.4029 Q=    0.4170 A=    0.0000 R=    0.0000 C=    0.0000
 XYZ=  -14.3540    4.9510  -13.1070 Q=   -0.8340 A=    0.0000 R=    0.0000 C=    0.0000
 XYZ=  -13.8220    5.6990  -13.3800 Q=    0.4170 A=    0.0000 R=    0.0000 C=    0.0000
 XYZ=  -14.8190    5.2580  -12.3290 Q=    0.4170 A=    0.0000 R=    0.0000 C=    0.0000
 XYZ=   -9.1991   -8.5745  -16.6189 Q=   -0.8340 A=    0.0000 R=    0.0000 C=    0.0000
 XYZ=   -9.1333   -8.4274  -15.6754 Q=    0.4170 A=    0.0000 R=    0.0000 C=    0.0000
 XYZ=  -10.1195   -8.4097  -16.8239 Q=    0.4170 A=    0.0000 R=    0.0000 C=    0.0000
 XYZ=    2.6860  -29.2930    0.4910 Q=   -0.8340 A=    0.0000 R=    0.0000 C=    0.0000
 XYZ=    3.0290  -29.1660    1.3760 Q=    0.4170 A=    0.0000 R=    0.0000 C=    0.0000
 XYZ=    1.8170  -28.8920    0.5110 Q=    0.4170 A=    0.0000 R=    0.0000 C=    0.0000
 XYZ=    2.5350  -30.3740   -8.0190 Q=   -0.8340 A=    0.0000 R=    0.0000 C=    0.0000
 XYZ=    2.8950  -31.0310   -7.4230 Q=    0.4170 A=    0.0000 R=    0.0000 C=    0.0000
 XYZ=    3.1630  -29.6530   -7.9880 Q=    0.4170 A=    0.0000 R=    0.0000 C=    0.0000
 XYZ=  -18.7530    5.5100  -12.5600 Q=   -0.8340 A=    0.0000 R=    0.0000 C=    0.0000
 XYZ=  -18.4920    6.3110  -13.0140 Q=    0.4170 A=    0.0000 R=    0.0000 C=    0.0000
 XYZ=  -17.9290    5.1180  -12.2710 Q=    0.4170 A=    0.0000 R=    0.0000 C=    0.0000
 XYZ=    1.6989  -23.5896    2.1011 Q=   -0.8340 A=    0.0000 R=    0.0000 C=    0.0000
 XYZ=    2.1594  -22.7537    2.0272 Q=    0.4170 A=    0.0000 R=    0.0000 C=    0.0000
 XYZ=    1.2541  -23.6938    1.2599 Q=    0.4170 A=    0.0000 R=    0.0000 C=    0.0000
 XYZ=    5.1348  -13.8720    4.8863 Q=   -0.8340 A=    0.0000 R=    0.0000 C=    0.0000
 XYZ=    4.3869  -14.4673    4.9357 Q=    0.4170 A=    0.0000 R=    0.0000 C=    0.0000
 XYZ=    5.8918  -14.4467    4.7723 Q=    0.4170 A=    0.0000 R=    0.0000 C=    0.0000
 XYZ=   -5.6217   -7.1365   -2.8885 Q=   -0.8340 A=    0.0000 R=    0.0000 C=    0.0000
 XYZ=   -4.9548   -7.6854   -2.4759 Q=    0.4170 A=    0.0000 R=    0.0000 C=    0.0000
 XYZ=   -5.4481   -7.2124   -3.8268 Q=    0.4170 A=    0.0000 R=    0.0000 C=    0.0000
 XYZ=  -23.3470   -9.7980   -8.2020 Q=   -0.8340 A=    0.0000 R=    0.0000 C=    0.0000
 XYZ=  -23.9500   -9.5670   -8.9090 Q=    0.4170 A=    0.0000 R=    0.0000 C=    0.0000
 XYZ=  -23.8350   -9.6090   -7.4010 Q=    0.4170 A=    0.0000 R=    0.0000 C=    0.0000
 XYZ=   12.6710  -12.4630  -10.2800 Q=   -0.8340 A=    0.0000 R=    0.0000 C=    0.0000
 XYZ=   13.0410  -11.6900   -9.8550 Q=    0.4170 A=    0.0000 R=    0.0000 C=    0.0000
 XYZ=   13.1170  -12.5090  -11.1260 Q=    0.4170 A=    0.0000 R=    0.0000 C=    0.0000
 XYZ=    9.4900    0.5840   -8.0140 Q=   -0.8340 A=    0.0000 R=    0.0000 C=    0.0000
 XYZ=    8.7730    0.5880   -7.3790 Q=    0.4170 A=    0.0000 R=    0.0000 C=    0.0000
 XYZ=    9.5140    1.4790   -8.3540 Q=    0.4170 A=    0.0000 R=    0.0000 C=    0.0000
 XYZ=  -15.2990  -26.6870  -10.8540 Q=   -0.8340 A=    0.0000 R=    0.0000 C=    0.0000
 XYZ=  -14.6010  -26.4460  -11.4650 Q=    0.4170 A=    0.0000 R=    0.0000 C=    0.0000
 XYZ=  -15.6240  -27.5260  -11.1800 Q=    0.4170 A=    0.0000 R=    0.0000 C=    0.0000
 XYZ=   -2.5449    2.8464    0.5233 Q=   -0.8340 A=    0.0000 R=    0.0000 C=    0.0000
 XYZ=   -2.4030    3.7865    0.6343 Q=    0.4170 A=    0.0000 R=    0.0000 C=    0.0000
 XYZ=   -3.4951    2.7400    0.5691 Q=    0.4170 A=    0.0000 R=    0.0000 C=    0.0000
 XYZ=    3.4950   -9.5040  -20.3580 Q=   -0.8340 A=    0.0000 R=    0.0000 C=    0.0000
 XYZ=    3.9270  -10.1820  -19.8390 Q=    0.4170 A=    0.0000 R=    0.0000 C=    0.0000
 XYZ=    4.1470   -8.8070  -20.4320 Q=    0.4170 A=    0.0000 R=    0.0000 C=    0.0000
 XYZ=  -22.3440  -21.4660   -6.9010 Q=   -0.8340 A=    0.0000 R=    0.0000 C=    0.0000
 XYZ=  -23.1330  -20.9290   -6.8240 Q=    0.4170 A=    0.0000 R=    0.0000 C=    0.0000
 XYZ=  -22.2560  -21.6300   -7.8400 Q=    0.4170 A=    0.0000 R=    0.0000 C=    0.0000
 XYZ=  -12.6280  -15.5480   14.6410 Q=   -0.8340 A=    0.0000 R=    0.0000 C=    0.0000
 XYZ=  -12.0590  -14.8260   14.9090 Q=    0.4170 A=    0.0000 R=    0.0000 C=    0.0000
 XYZ=  -12.6440  -15.4980   13.6860 Q=    0.4170 A=    0.0000 R=    0.0000 C=    0.0000
 XYZ=    5.8314    0.2519   -9.6594 Q=   -0.8340 A=    0.0000 R=    0.0000 C=    0.0000
 XYZ=    5.6435    1.1280   -9.3227 Q=    0.4170 A=    0.0000 R=    0.0000 C=    0.0000
 XYZ=    5.0576   -0.2636   -9.4321 Q=    0.4170 A=    0.0000 R=    0.0000 C=    0.0000
 XYZ=   -9.3452   -0.5044  -15.1188 Q=   -0.8340 A=    0.0000 R=    0.0000 C=    0.0000
 XYZ=   -8.7256   -0.9784  -15.6734 Q=    0.4170 A=    0.0000 R=    0.0000 C=    0.0000
 XYZ=   -9.5254   -1.1032  -14.3941 Q=    0.4170 A=    0.0000 R=    0.0000 C=    0.0000
 XYZ=    7.8410  -16.9350    7.6070 Q=   -0.8340 A=    0.0000 R=    0.0000 C=    0.0000
 XYZ=    6.9910  -17.0640    8.0260 Q=    0.4170 A=    0.0000 R=    0.0000 C=    0.0000
 XYZ=    7.6890  -17.1450    6.6850 Q=    0.4170 A=    0.0000 R=    0.0000 C=    0.0000
 XYZ=  -14.9402   -2.8102   -1.8540 Q=   -0.8340 A=    0.0000 R=    0.0000 C=    0.0000
 XYZ=  -15.1724   -1.8891   -1.7359 Q=    0.4170 A=    0.0000 R=    0.0000 C=    0.0000
 XYZ=  -15.3403   -3.2561   -1.1075 Q=    0.4170 A=    0.0000 R=    0.0000 C=    0.0000
 XYZ=    3.6613   -7.1323   -1.2935 Q=   -0.8340 A=    0.0000 R=    0.0000 C=    0.0000
 XYZ=    3.8386   -7.6730   -2.0632 Q=    0.4170 A=    0.0000 R=    0.0000 C=    0.0000
 XYZ=    4.1901   -7.5238   -0.5983 Q=    0.4170 A=    0.0000 R=    0.0000 C=    0.0000
 XYZ=  -16.2070  -18.5520    7.1130 Q=   -0.8340 A=    0.0000 R=    0.0000 C=    0.0000
 XYZ=  -16.2330  -17.6650    7.4710 Q=    0.4170 A=    0.0000 R=    0.0000 C=    0.0000
 XYZ=  -16.1270  -19.1180    7.8810 Q=    0.4170 A=    0.0000 R=    0.0000 C=    0.0000
 XYZ=    0.7125   -5.9382    2.9013 Q=   -0.8340 A=    0.0000 R=    0.0000 C=    0.0000
 XYZ=    0.8270   -5.3385    3.6386 Q=    0.4170 A=    0.0000 R=    0.0000 C=    0.0000
 XYZ=    0.6191   -5.3666    2.1392 Q=    0.4170 A=    0.0000 R=    0.0000 C=    0.0000
 XYZ=   -1.7860    5.0830    6.9690 Q=   -0.8340 A=    0.0000 R=    0.0000 C=    0.0000
 XYZ=   -1.7650    4.1740    6.6710 Q=    0.4170 A=    0.0000 R=    0.0000 C=    0.0000
 XYZ=   -0.9250    5.2270    7.3610 Q=    0.4170 A=    0.0000 R=    0.0000 C=    0.0000
 XYZ=   -6.0405  -10.5518   -8.7529 Q=   -0.8340 A=    0.0000 R=    0.0000 C=    0.0000
 XYZ=   -5.8881  -11.2777   -8.1479 Q=    0.4170 A=    0.0000 R=    0.0000 C=    0.0000
 XYZ=   -5.1643  -10.2382   -8.9771 Q=    0.4170 A=    0.0000 R=    0.0000 C=    0.0000
 XYZ=  -23.1330  -11.8930  -15.0410 Q=   -0.8340 A=    0.0000 R=    0.0000 C=    0.0000
 XYZ=  -22.5620  -12.6400  -15.2200 Q=    0.4170 A=    0.0000 R=    0.0000 C=    0.0000
 XYZ=  -23.7570  -12.2180  -14.3910 Q=    0.4170 A=    0.0000 R=    0.0000 C=    0.0000
 XYZ=  -18.6770  -10.7470  -18.5420 Q=   -0.8340 A=    0.0000 R=    0.0000 C=    0.0000
 XYZ=  -17.8870  -10.6410  -18.0110 Q=    0.4170 A=    0.0000 R=    0.0000 C=    0.0000
 XYZ=  -18.3770  -11.1950  -19.3320 Q=    0.4170 A=    0.0000 R=    0.0000 C=    0.0000
 XYZ=  -16.2670  -25.2050    6.8830 Q=   -0.8340 A=    0.0000 R=    0.0000 C=    0.0000
 XYZ=  -16.7890  -25.7850    6.3290 Q=    0.4170 A=    0.0000 R=    0.0000 C=    0.0000
 XYZ=  -15.5200  -25.7400    7.1540 Q=    0.4170 A=    0.0000 R=    0.0000 C=    0.0000
 XYZ=   -0.5171  -13.2378    6.8241 Q=   -0.8340 A=    0.0000 R=    0.0000 C=    0.0000
 XYZ=    0.0556  -13.9951    6.7026 Q=    0.4170 A=    0.0000 R=    0.0000 C=    0.0000
 XYZ=   -0.9925  -13.4238    7.6338 Q=    0.4170 A=    0.0000 R=    0.0000 C=    0.0000
 XYZ=  -11.5030  -29.2470  -12.9310 Q=   -0.8340 A=    0.0000 R=    0.0000 C=    0.0000
 XYZ=  -11.7640  -29.5170  -12.0510 Q=    0.4170 A=    0.0000 R=    0.0000 C=    0.0000
 XYZ=  -10.6390  -29.6400  -13.0570 Q=    0.4170 A=    0.0000 R=    0.0000 C=    0.0000
 XYZ=  -14.2901  -16.5204  -15.3505 Q=   -0.8340 A=    0.0000 R=    0.0000 C=    0.0000
 XYZ=  -13.4928  -17.0363  -15.2299 Q=    0.4170 A=    0.0000 R=    0.0000 C=    0.0000
 XYZ=  -13.9836  -15.6156  -15.4114 Q=    0.4170 A=    0.0000 R=    0.0000 C=    0.0000
 XYZ=   -4.6306  -23.8067  -16.7814 Q=   -0.8340 A=    0.0000 R=    0.0000 C=    0.0000
 XYZ=   -5.1583  -24.0778  -17.5325 Q=    0.4170 A=    0.0000 R=    0.0000 C=    0.0000
 XYZ=   -5.2593  -23.7210  -16.0647 Q=    0.4170 A=    0.0000 R=    0.0000 C=    0.0000
 XYZ=  -11.5270  -28.6850   -5.2900 Q=   -0.8340 A=    0.0000 R=    0.0000 C=    0.0000
 XYZ=  -11.6310  -28.3420   -6.1770 Q=    0.4170 A=    0.0000 R=    0.0000 C=    0.0000
 XYZ=  -12.4200  -28.8700   -4.9980 Q=    0.4170 A=    0.0000 R=    0.0000 C=    0.0000
 XYZ=  -23.4200  -10.9200    1.2950 Q=   -0.8340 A=    0.0000 R=    0.0000 C=    0.0000
 XYZ=  -24.2000  -11.3000    0.8900 Q=    0.4170 A=    0.0000 R=    0.0000 C=    0.0000
 XYZ=  -23.7130  -10.6390    2.1620 Q=    0.4170 A=    0.0000 R=    0.0000 C=    0.0000
 XYZ=  -17.3265  -12.7235    4.7947 Q=   -0.8340 A=    0.0000 R=    0.0000 C=    0.0000
 XYZ=  -17.4590  -13.0376    3.9002 Q=    0.4170 A=    0.0000 R=    0.0000 C=    0.0000
 XYZ=  -18.0409  -13.1172    5.2955 Q=    0.4170 A=    0.0000 R=    0.0000 C=    0.0000
 XYZ=   -4.3676  -15.0923  -15.9193 Q=   -0.8340 A=    0.0000 R=    0.0000 C=    0.0000
 XYZ=   -3.7728  -15.0886  -15.1693 Q=    0.4170 A=    0.0000 R=    0.0000 C=    0.0000
 XYZ=   -5.2326  -14.9362  -15.5403 Q=    0.4170 A=    0.0000 R=    0.0000 C=    0.0000
 XYZ=   -8.9108  -22.3297   -9.2869 Q=   -0.8340 A=    0.0000 R=    0.0000 C=    0.0000
 XYZ=   -9.6208  -22.4178   -8.6510 Q=    0.4170 A=    0.0000 R=    0.0000 C=    0.0000
 XYZ=   -8.1149  -22.3031   -8.7558 Q=    0.4170 A=    0.0000 R=    0.0000 C=    0.0000
 XYZ=   -9.8495   -5.0348  -10.9332 Q=   -0.8340 A=    0.0000 R=    0.0000 C=    0.0000
 XYZ=   -9.2632   -4.5833  -10.3260 Q=    0.4170 A=    0.0000 R=    0.0000 C=    0.0000
 XYZ=  -10.6722   -4.5487  -10.8787 Q=    0.4170 A=    0.0000 R=    0.0000 C=    0.0000
 XYZ=    3.8626    0.9650  -14.2098 Q=   -0.8340 A=    0.0000 R=    0.0000 C=    0.0000
 XYZ=    3.7424    0.4077  -13.4410 Q=    0.4170 A=    0.0000 R=    0.0000 C=    0.0000
 XYZ=    2.9972    1.0021  -14.6171 Q=    0.4170 A=    0.0000 R=    0.0000 C=    0.0000
 XYZ=   -0.0420    6.0560    2.3520 Q=   -0.8340 A=    0.0000 R=    0.0000 C=    0.0000
 XYZ=   -0.2690    6.9860    2.3500 Q=    0.4170 A=    0.0000 R=    0.0000 C=    0.0000
 XYZ=   -0.5130    5.6920    1.6020 Q=    0.4170 A=    0.0000 R=    0.0000 C=    0.0000
 XYZ=   -9.7840   -3.0600   10.6770 Q=   -0.8340 A=    0.0000 R=    0.0000 C=    0.0000
 XYZ=  -10.2830   -2.6020   10.0010 Q=    0.4170 A=    0.0000 R=    0.0000 C=    0.0000
 XYZ=  -10.1420   -2.7330   11.5020 Q=    0.4170 A=    0.0000 R=    0.0000 C=    0.0000
 XYZ=   -2.3839   -1.8432  -13.4295 Q=   -0.8340 A=    0.0000 R=    0.0000 C=    0.0000
[...]
 4768          -0.024989      0.000395      0.000437     -0.000217
 4769          -0.025888      0.000435      0.000467     -0.000216
 4770          -0.024522      0.000368      0.000438     -0.000195
 4771          -0.028731      0.000440      0.000121     -0.000687
 4772          -0.029935      0.000485      0.000158     -0.000736
 4773          -0.028345      0.000459      0.000097     -0.000652
 4774          -0.068082      0.003423     -0.001782     -0.000389
 4775          -0.074414      0.004328     -0.002221     -0.000441
 4776          -0.064153      0.003167     -0.001692     -0.000649
 4777          -0.049167      0.000238      0.000161      0.002388
 4778          -0.047316      0.000342      0.000018      0.002202
 4779          -0.046086      0.000178      0.000258      0.002093
 4780          -0.030923      0.000488     -0.000800      0.000151
 4781          -0.032040      0.000514     -0.000872      0.000122
 4782          -0.029694      0.000470     -0.000730      0.000116
 4783          -0.026097      0.000495     -0.000026     -0.000466
 4784          -0.027374      0.000543     -0.000024     -0.000515
 4785          -0.025842      0.000506     -0.000024     -0.000434
 4786          -0.025677      0.000202     -0.000615      0.000119
 4787          -0.026356      0.000229     -0.000638      0.000144
 4788          -0.026453      0.000201     -0.000661      0.000106
 4789          -0.023072      0.000471      0.000203      0.000151
 4790          -0.022453      0.000441      0.000207      0.000140
 4791          -0.023773      0.000503      0.000220      0.000144
 4792          -0.025705      0.000556     -0.000256      0.000235
 4793          -0.024737      0.000523     -0.000226      0.000213
 4794          -0.026581      0.000606     -0.000260      0.000238
 4795          -0.030251      0.000421     -0.000516     -0.000631
 4796          -0.031046      0.000435     -0.000509     -0.000698
 4797          -0.030106      0.000459     -0.000499     -0.000603
 4798          -0.074109     -0.002993     -0.004006      0.002436
 4799          -0.073543     -0.003506     -0.003767      0.001921
 4800          -0.074126     -0.003070     -0.003509      0.002989
 4801          -0.024348      0.000149     -0.000040     -0.000572
 4802          -0.023840      0.000128     -0.000023     -0.000553
 4803          -0.023642      0.000157     -0.000042     -0.000535
 4804          -0.027897      0.000212      0.000668      0.000351
 4805          -0.028243      0.000243      0.000664      0.000383
 4806          -0.026561      0.000189      0.000604      0.000322
 4807          -0.027842     -0.000770      0.000072     -0.000052
 4808          -0.027672     -0.000764      0.000033     -0.000046
 4809          -0.027895     -0.000773      0.000087     -0.000016
 4810          -0.035586      0.000644      0.001030     -0.000404
 4811          -0.035423      0.000598      0.001065     -0.000345
 4812          -0.035756      0.000720      0.001011     -0.000367
 4813          -0.029477     -0.000746      0.000080      0.000435
 4814          -0.030460     -0.000809      0.000112      0.000436
 4815          -0.030039     -0.000777      0.000038      0.000455
 4816          -0.040812      0.000147      0.000666      0.001522
 4817          -0.038206      0.000109      0.000618      0.001320
 4818          -0.042635      0.000074      0.000798      0.001633
 4819          -0.024146      0.000348      0.000382     -0.000274
 4820          -0.024338      0.000358      0.000400     -0.000256
 4821          -0.025111      0.000370      0.000410     -0.000308
 4822          -0.062049      0.000719      0.003735      0.001092
 4823          -0.059720      0.000700      0.003543      0.000613
 4824          -0.057950      0.000373      0.003229      0.001084
 4825          -0.024234      0.000310     -0.000402      0.000289
 4826          -0.023438      0.000293     -0.000366      0.000281
 4827          -0.023850      0.000288     -0.000405      0.000271
 4828          -0.027605     -0.000153     -0.000022     -0.000745
 4829          -0.027895     -0.000189     -0.000041     -0.000753
 4830          -0.027787     -0.000128     -0.000049     -0.000759
 4831          -0.033910     -0.000435     -0.000770      0.000737
 4832          -0.036021     -0.000491     -0.000885      0.000815
 4833          -0.033505     -0.000364     -0.000755      0.000748
 4834          -0.036630      0.000513     -0.000637     -0.001076
 4835          -0.035261      0.000425     -0.000561     -0.001036
 4836          -0.037707      0.000492     -0.000742     -0.001124
 4837          -0.038817     -0.000138     -0.000803      0.001262
 4838          -0.041184     -0.000223     -0.000885      0.001423
 4839          -0.038658     -0.000111     -0.000881      0.001197
 4840          -0.027686      0.000516     -0.000248      0.000503
 4841          -0.026976      0.000484     -0.000263      0.000469
 4842          -0.028481      0.000521     -0.000267      0.000555
 4843          -0.025360      0.000320     -0.000295      0.000470
 4844          -0.024647      0.000313     -0.000288      0.000430
 4845          -0.025711      0.000308     -0.000323      0.000484
 4846          -0.032265      0.000749     -0.000079      0.000717
 4847          -0.032253      0.000746     -0.000138      0.000708
 4848          -0.033476      0.000772     -0.000070      0.000808
 4849          -0.024837      0.000413     -0.000322     -0.000323
 4850          -0.024258      0.000377     -0.000319     -0.000318
 4851          -0.025313      0.000430     -0.000352     -0.000315
 4852          -0.120466      0.015499     -0.001430     -0.006596
 4853          -0.099190      0.010151      0.000582     -0.003984
 4854          -0.145834      0.023094      0.005146     -0.011282
 4855          -0.036271      0.001029     -0.000491     -0.000634
 4856          -0.034968      0.000943     -0.000511     -0.000564
 4857          -0.036242      0.000985     -0.000483     -0.000708
 4858          -0.030362      0.000013     -0.000880      0.000281
 4859          -0.030034      0.000023     -0.000874      0.000230
 4860          -0.028939      0.000017     -0.000793      0.000274
 4861          -0.029506      0.000707     -0.000480     -0.000099
 4862          -0.030922      0.000775     -0.000530     -0.000084
 4863          -0.029036      0.000661     -0.000497     -0.000103
 4864          -0.035350      0.000575     -0.000967      0.000520
 4865          -0.036914      0.000663     -0.001012      0.000599
 4866          -0.036191      0.000536     -0.001051      0.000550
 4867          -0.031733      0.000288     -0.000560     -0.000794
 4868          -0.030836      0.000276     -0.000566     -0.000720
 4869          -0.033484      0.000299     -0.000641     -0.000880
 4870          -0.032394     -0.000099     -0.000288     -0.001008
 4871          -0.032527     -0.000150     -0.000323     -0.001000
 4872          -0.031416     -0.000056     -0.000304     -0.000941
 4873          -0.026670      0.000292     -0.000183      0.000620
 4874          -0.026729      0.000302     -0.000214      0.000609
 4875          -0.027838      0.000327     -0.000184      0.000676
 4876          -0.032813      0.000433      0.000861     -0.000492
 4877          -0.033443      0.000499      0.000893     -0.000470
 4878          -0.030999      0.000396      0.000762     -0.000440
 4879          -0.027411      0.000219     -0.000719      0.000000
 4880          -0.027886      0.000219     -0.000745      0.000036
 4881          -0.026153      0.000191     -0.000657      0.000002
 4882          -0.029345     -0.000771      0.000276      0.000260
 4883          -0.030358     -0.000837      0.000293      0.000242
 4884          -0.028107     -0.000717      0.000236      0.000227
 4885          -0.029761     -0.000876     -0.000144      0.000021
 4886          -0.029406     -0.000856     -0.000131     -0.000024
 4887          -0.029851     -0.000872     -0.000192      0.000023
 4888          -0.026052      0.000492     -0.000415     -0.000202
 4889          -0.026048      0.000499     -0.000394     -0.000225
 4890          -0.025056      0.000462     -0.000381     -0.000174
 4891          -0.026772     -0.000501     -0.000365      0.000362
 4892          -0.026760     -0.000477     -0.000391      0.000365
 4893          -0.028081     -0.000558     -0.000394      0.000396
 4894          -0.031566     -0.000200      0.000629     -0.000732
 4895          -0.031811     -0.000235      0.000669     -0.000708
 4896          -0.030991     -0.000148      0.000627     -0.000700
 4897          -0.023428      0.000470     -0.000114      0.000255
 4898          -0.024113      0.000506     -0.000108      0.000260
 4899          -0.022850      0.000445     -0.000094      0.000252
 -----------------------------------------------------------------
 Leave Link  602 at Sat Jun 19 00:21:09 2021, MaxMem=   134217728 cpu:              15.8 elap:               1.0
 (Enter /APL/ISV/x86_64/gaussian/16/C.01/g16/l701.exe)
 ... and contract with generalized density number  0.
 Compute integral first derivatives.
 R6Disp: Adding Grimme-D3 dispersion energy 1st derivatives to the gradient.
 Leave Link  701 at Sat Jun 19 00:21:09 2021, MaxMem=   134217728 cpu:               3.2 elap:               0.2
 (Enter /APL/ISV/x86_64/gaussian/16/C.01/g16/l702.exe)
 L702 exits ... SP integral derivatives will be done elsewhere.
 Leave Link  702 at Sat Jun 19 00:21:09 2021, MaxMem=   134217728 cpu:               0.3 elap:               0.0
 (Enter /APL/ISV/x86_64/gaussian/16/C.01/g16/l703.exe)
 Integral derivatives from FoFJK, PRISM(SPDF).
 Compute integral first derivatives, UseDBF=F ICtDFT=           0.
 Calling FoFJK, ICntrl=      2127 FMM=F ISym2X=0 I1Cent= 0 IOpClX= 0 NMat=1 NMatS=1 NMatT=0.
 FoFJK:  IHMeth= 1 ICntrl=    2127 DoSepK=F KAlg= 0 I1Cent=           0 FoldK=F
 IRaf=         0 NMat=       1 IRICut=       1 DoRegI=T DoRafI=F ISym2E= 0 IDoP0=0 IntGTp=1.
 FoFCou: FMM=F IPFlag=           0 FMFlag=      100000 FMFlg1=         800
         NFxFlg=           0 DoJE=F BraDBF=F KetDBF=F FulRan=T
         wScrn=  0.000000 ICntrl=      2127 IOpCl=  0 I1Cent=           0 NGrid=           0
         NMat0=    1 NMatS0=      1 NMatT0=    0 NMatD0=    1 NMtDS0=    0 NMtDT0=    0
 Symmetry not used in FoFCou.
 Leave Link  703 at Sat Jun 19 00:21:09 2021, MaxMem=   134217728 cpu:               5.4 elap:               0.4
 (Enter /APL/ISV/x86_64/gaussian/16/C.01/g16/l716.exe)
 Dipole        = 8.50954230D+00 2.06545426D+01 1.13936478D+01
 -------------------------------------------------------------------
 Center     Atomic                   Forces (Hartrees/Bohr)
 Number     Number              X              Y              Z
 -------------------------------------------------------------------
      1       15          -0.039202564   -0.045241584    0.020642424
      2        8          -0.005529224    0.011979177   -0.001249824
      3        1           0.003783229   -0.009720934    0.000014039
      4        8          -0.008823384    0.040469463   -0.007907481
      5        1          -0.020112637   -0.007890131    0.000266535
      6        8           0.080817817    0.023327307   -0.012337969
      7        8           0.004737640   -0.028820584   -0.007070553
 -------------------------------------------------------------------
 Cartesian Forces:  Max     0.080817817 RMS     0.026430655
 Force constants in Cartesian coordinates: 
                1             2             3             4             5 
      1  0.131644D+01
      2  0.146846D+00  0.109827D+01
      3 -0.417272D-01  0.843061D-01  0.789474D+00
      4 -0.306121D-01 -0.721140D-02  0.380543D-01  0.278979D+00
      5 -0.642810D-02 -0.175412D-01 -0.163969D-02 -0.142213D+00  0.543589D+00
      6  0.599923D-01 -0.154131D-01 -0.323843D+00  0.108452D-01 -0.157655D+00
      7  0.536023D-01 -0.856509D-02 -0.924973D-02  0.183368D-01  0.204969D+00
      8 -0.628237D-02  0.676698D-01 -0.450188D-02  0.194690D+00 -0.330993D+00
      9 -0.104096D-01  0.240262D-01  0.568422D-01 -0.571638D-01  0.153461D+00
     10 -0.154059D+00  0.198164D+00 -0.620758D-01  0.402660D-01 -0.255653D-01
     11  0.180297D+00 -0.363077D+00  0.102798D+00 -0.105316D-01  0.512958D-01
     12 -0.545077D-01  0.966304D-01 -0.399047D-01 -0.808731D-02  0.232478D-01
     13  0.553778D-01 -0.700956D-02  0.235653D-02  0.421749D-01 -0.173736D-01
     14  0.167901D-01  0.600108D-01 -0.504173D-02 -0.155267D-02  0.426469D-01
     15 -0.189963D-01 -0.978266D-02  0.636970D-01  0.341730D-01  0.118289D-01
     16 -0.738773D+00 -0.144192D+00  0.152640D+00  0.394374D-01 -0.117778D-01
     17 -0.139296D+00 -0.311654D-01  0.268311D-01 -0.184425D-01  0.650383D-01
     18  0.165791D+00  0.308570D-01 -0.243007D-01 -0.470912D-01 -0.286307D-01
     19 -0.951965D-01 -0.178031D+00 -0.799986D-01  0.182001D-01 -0.161038D-02
     20 -0.191927D+00 -0.407388D+00 -0.202752D+00 -0.147381D-01  0.527469D-01
     21 -0.100142D+00 -0.210624D+00 -0.115182D+00  0.292697D-01 -0.613031D-03
                6             7             8             9            10 
      6  0.568787D+00
      7 -0.691578D-01  0.250684D+00
      8  0.174662D+00 -0.108231D+00  0.491977D+00
      9 -0.711248D-01  0.793514D-01 -0.166842D+00  0.190209D+00
     10 -0.159785D-02  0.100032D-01 -0.346961D-01 -0.818219D-02  0.855859D+00
     11 -0.103009D-02 -0.254720D-01  0.390546D-01 -0.464587D-02 -0.137573D+00
     12  0.573493D-01 -0.700067D-02 -0.608076D-02  0.563709D-01  0.223041D-01
     13 -0.150635D-02  0.111094D-01 -0.339165D-01 -0.836117D-02 -0.442052D+00
     14 -0.176733D-02 -0.418421D-01  0.212498D-01 -0.110609D-01  0.155945D-01
     15  0.579754D-01  0.376406D-01  0.142643D-01  0.578117D-01  0.524426D-01
     16 -0.141602D-03  0.289197D-01 -0.152438D-01 -0.193679D-02  0.644364D-01
     17  0.182548D-02  0.813715D-02  0.786790D-01  0.892637D-02 -0.300804D-01
     18  0.603788D-01 -0.834190D-01 -0.383385D-01  0.551312D-01  0.111582D-01
     19  0.156608D-02  0.341275D-01  0.368035D-02  0.670213D-02  0.323298D-01
     20 -0.622143D-03 -0.289952D-01  0.391446D-01 -0.386541D-02  0.141568D-01
     21  0.572602D-01  0.518352D-01  0.268367D-01  0.615422D-01 -0.140491D-01
               11            12            13            14            15 
     11  0.548806D+00
     12 -0.103592D+00  0.208746D+00
     13  0.563383D-02  0.531164D-01  0.652590D+00
     14  0.309533D-01  0.204645D-01  0.823273D-01  0.195460D+00
     15  0.635561D-02 -0.240928D-03 -0.425392D-01  0.160253D-01  0.139006D+00
     16  0.282899D-02  0.244942D-02  0.693725D-01  0.717915D-02 -0.140124D-01
     17  0.374375D-01 -0.249702D-01 -0.525776D-01 -0.290704D-01 -0.344646D-01
     18  0.164501D-02  0.521302D-01  0.162278D-01 -0.561134D-02  0.103794D-01
     19 -0.151829D-01 -0.827416D-02  0.182101D-01 -0.784964D-01 -0.487084D-01
     20  0.623123D-01 -0.569995D-02  0.229161D-01  0.855322D-01 -0.422679D-02
     21 -0.153074D-02  0.723315D-01 -0.192940D-01 -0.130084D-01  0.781544D-01
               16            17            18            19            20 
     16  0.869665D+00
     17  0.153080D+00  0.242195D+00
     18 -0.120998D+00  0.181865D-01  0.239919D+00
     19  0.737237D-01  0.791799D-01  0.583313D-01  0.325388D+00
     20  0.812619D-02  0.436687D-01  0.218920D-01  0.190461D+00  0.530766D+00
     21 -0.180010D-01  0.366542D-02  0.131443D-01  0.703816D-01  0.195274D+00
               21 
     21  0.239532D+00
 Leave Link  716 at Sat Jun 19 00:21:10 2021, MaxMem=   134217728 cpu:               0.3 elap:               0.0
 (Enter /APL/ISV/x86_64/gaussian/16/C.01/g16/l103.exe)

 GradGradGradGradGradGradGradGradGradGradGradGradGradGradGradGradGradGrad
 Berny optimization.
 Search for a local minimum.
 Step number   1 out of a maximum of    2
 All quantities printed in internal units (Hartrees-Bohrs-Radians)
 Second derivative matrix not updated -- first step.
 ITU=  0
     Eigenvalues ---    0.03919   0.05505   0.08349   0.08909   0.11358
     Eigenvalues ---    0.14491   0.16271   0.17009   0.20209   0.55980
     Eigenvalues ---    0.91210   1.06905   1.26320   1.59973   2.04356
 Angle between quadratic step and forces=  55.19 degrees.
 Linear search not attempted -- first point.
 Variable       Old X    -DE/DX   Delta X   Delta X   Delta X     New X
                                 (Linear)    (Quad)   (Total)
    X1      -10.01436  -0.03920   0.00000  -0.00100  -0.00100 -10.01537
    Y1      -19.94511  -0.04524   0.00000  -0.02207  -0.02207 -19.96718
    Z1      -10.22018   0.02064   0.00000  -0.03379  -0.03379 -10.25396
    X2      -10.49673  -0.00553   0.00000  -0.03444  -0.03444 -10.53117
    Y2      -20.02335   0.01198   0.00000   0.03775   0.03775 -19.98560
    Z2       -7.09229  -0.00125   0.00000  -0.03595  -0.03595  -7.12824
    X3       -9.84235   0.00378   0.00000  -0.03903  -0.03903  -9.88138
    Y3      -21.54917  -0.00972   0.00000  -0.00492  -0.00492 -21.55409
    Z3       -6.35895   0.00001   0.00000  -0.07687  -0.07687  -6.43582
    X4      -11.57349  -0.00882   0.00000  -0.03256  -0.03256 -11.60605
    Y4      -17.50990   0.04047   0.00000   0.08688   0.08688 -17.42302
    Z4      -10.93316  -0.00791   0.00000   0.05203   0.05203 -10.88113
    X5      -13.37928  -0.02011   0.00000  -0.05879  -0.05879 -13.43807
    Y5      -17.59116  -0.00789   0.00000   0.01887   0.01887 -17.57228
    Z5      -10.77417   0.00027   0.00000   0.07280   0.07280 -10.70137
    X6       -7.33404   0.08082   0.00000   0.09953   0.09953  -7.23451
    Y6      -19.41221   0.02333   0.00000   0.00077   0.00077 -19.41143
    Z6      -10.75489  -0.01234   0.00000   0.00210   0.00210 -10.75279
    X7      -11.17146   0.00474   0.00000   0.00343   0.00343 -11.16803
    Y7      -22.32180  -0.02882   0.00000  -0.10012  -0.10012 -22.42192
    Z7      -11.41209  -0.00707   0.00000   0.02952   0.02952 -11.38256
         Item               Value     Threshold  Converged?
 Maximum Force            0.080818     0.000450     NO 
 RMS     Force            0.026431     0.000300     NO 
 Maximum Displacement     0.100117     0.001800     NO 
 RMS     Displacement     0.050819     0.001200     NO 
 Predicted change in Energy=-8.050389D-03
 GradGradGradGradGradGradGradGradGradGradGradGradGradGradGradGradGradGrad

 Leave Link  103 at Sat Jun 19 00:21:10 2021, MaxMem=   134217728 cpu:               0.2 elap:               0.0
 (Enter /APL/ISV/x86_64/gaussian/16/C.01/g16/l9999.exe)

 Test job not archived.
 1\1\GINC-LEMON\Force\RB3LYP\CC-pVDZ\H2O4P1(1-)\YAGI\19-Jun-2021\0\\#P 
 B3LYP/cc-pVDZ EmpiricalDispersion=GD3 scf(conver=8) iop(4/5=100) nosym
 m Charge Force Prop=(Field,Read) pop=mk\\Gaussian run for QMMM in gene
 sis\\-1,1\P,-5.2993729429,-10.5544956244,-5.4082840197\O,-5.554629364,
 -10.5959016823,-3.7530802227\H,-5.2083490391,-11.4033295372,-3.3650129
 662\O,-6.1244287505,-9.2658385496,-5.7855814358\H,-7.0800085,-9.308840
 5914,-5.7014436511\O,-3.8810075729,-10.2724984389,-5.6912444733\O,-5.9
 116832213,-11.8121903603,-6.0390155377\\Version=ES64L-G16RevC.01\HF=-1
 131.6049199\RMSD=3.416e-09\RMSF=2.643e-02\Dipole=-1.6545981,0.8085217,
 1.3533366\Quadrupole=138.1631707,-219.5951424,81.4319717,-181.9574604,
 -97.1939214,-238.7597404\PG=C01 [X(H2O4P1)]\\@


      THE ONE-EYED VIEW OF OUR UNIVERSE SAYS YOU MUST NOT LOOK
      FAR AFIELD FOR PROBLEMS.  SUCH PROBLEMS MAY NEVER ARRIVE. 
      INSTEAD, TEND TO THE WOLF WITHIN YOUR FENCES.
      THE PACKS RANGING OUTSIDE MAY NOT EVEN EXIST.

                              -- THE AZHAR BOOK SHAMRA I:4
                                 CHILDREN OF DUNE, BY FRANK HERBERT
 Job cpu time:       0 days  0 hours  1 minutes  6.5 seconds.
 Elapsed time:       0 days  0 hours  0 minutes  4.8 seconds.
 File lengths (MBytes):  RWF=     10 Int=      0 D2E=      0 Chk=      2 Scr=      1
 Normal termination of Gaussian 16 at Sat Jun 19 00:21:10 2021.

real	0m5.102s
user	1m5.531s
sys	0m1.232s
