 Entering Gaussian System, Link 0=g16
 Initial command:
 /APL/ISV/x86_64/gaussian/16/C.01/g16/l1.exe "/scr/yagi/job10.9Ves/Gau-13671.inp" -scrdir="/scr/yagi/job10.9Ves/"
 Entering Link 1 = /APL/ISV/x86_64/gaussian/16/C.01/g16/l1.exe PID=     13672.
  
 Copyright (c) 1988-2019, Gaussian, Inc.  All Rights Reserved.
  
 This is part of the Gaussian(R) 16 program.  It is based on
 the Gaussian(R) 09 system (copyright 2009, Gaussian, Inc.),
 the Gaussian(R) 03 system (copyright 2003, Gaussian, Inc.),
 the Gaussian(R) 98 system (copyright 1998, Gaussian, Inc.),
 the Gaussian(R) 94 system (copyright 1995, Gaussian, Inc.),
 the Gaussian 92(TM) system (copyright 1992, Gaussian, Inc.),
 the Gaussian 90(TM) system (copyright 1990, Gaussian, Inc.),
 the Gaussian 88(TM) system (copyright 1988, Gaussian, Inc.),
 the Gaussian 86(TM) system (copyright 1986, Carnegie Mellon
 University), and the Gaussian 82(TM) system (copyright 1983,
 Carnegie Mellon University). Gaussian is a federally registered
 trademark of Gaussian, Inc.
  
 This software contains proprietary and confidential information,
 including trade secrets, belonging to Gaussian, Inc.
  
 This software is provided under written license and may be
 used, copied, transmitted, or stored only in accord with that
 written license.
  
 The following legend is applicable only to US Government
 contracts under FAR:
  
                    RESTRICTED RIGHTS LEGEND
  
 Use, reproduction and disclosure by the US Government is
 subject to restrictions as set forth in subparagraphs (a)
 and (c) of the Commercial Computer Software - Restricted
 Rights clause in FAR 52.227-19.
  
 Gaussian, Inc.
 340 Quinnipiac St., Bldg. 40, Wallingford CT 06492
  
  
 ---------------------------------------------------------------
 Warning -- This program may not be used in any manner that
 competes with the business of Gaussian, Inc. or will provide
 assistance to any competitor of Gaussian, Inc.  The licensee
 of this program is prohibited from giving any competitor of
 Gaussian, Inc. access to this program.  By using this program,
 the user acknowledges that Gaussian, Inc. is engaged in the
 business of creating and licensing software in the field of
 computational chemistry and represents and warrants to the
 licensee that it is not a competitor of Gaussian, Inc. and that
 it will not use this program in any manner prohibited above.
 ---------------------------------------------------------------
  

 Cite this work as:
 Gaussian 16, Revision C.01,
 M. J. Frisch, G. W. Trucks, H. B. Schlegel, G. E. Scuseria, 
 M. A. Robb, J. R. Cheeseman, G. Scalmani, V. Barone, 
 G. A. Petersson, H. Nakatsuji, X. Li, M. Caricato, A. V. Marenich, 
 J. Bloino, B. G. Janesko, R. Gomperts, B. Mennucci, H. P. Hratchian, 
 J. V. Ortiz, A. F. Izmaylov, J. L. Sonnenberg, D. Williams-Young, 
 F. Ding, F. Lipparini, F. Egidi, J. Goings, B. Peng, A. Petrone, 
 T. Henderson, D. Ranasinghe, V. G. Zakrzewski, J. Gao, N. Rega, 
 G. Zheng, W. Liang, M. Hada, M. Ehara, K. Toyota, R. Fukuda, 
 J. Hasegawa, M. Ishida, T. Nakajima, Y. Honda, O. Kitao, H. Nakai, 
 T. Vreven, K. Throssell, J. A. Montgomery, Jr., J. E. Peralta, 
 F. Ogliaro, M. J. Bearpark, J. J. Heyd, E. N. Brothers, K. N. Kudin, 
 V. N. Staroverov, T. A. Keith, R. Kobayashi, J. Normand, 
 K. Raghavachari, A. P. Rendell, J. C. Burant, S. S. Iyengar, 
 J. Tomasi, M. Cossi, J. M. Millam, M. Klene, C. Adamo, R. Cammi, 
 J. W. Ochterski, R. L. Martin, K. Morokuma, O. Farkas, 
 J. B. Foresman, and D. J. Fox, Gaussian, Inc., Wallingford CT, 2019.
 
 ******************************************
 Gaussian 16:  ES64L-G16RevC.01  3-Jul-2019
                19-Jun-2021 
 ******************************************
 %NprocShared=16
 Will use up to   16 processors via shared memory.
 %chk=gaussian.chk
 %mem=1gb
 ----------------------------------------------------------------------
 #P B3LYP/cc-pVDZ EmpiricalDispersion=GD3 scf(conver=8) iop(4/5=100) no
 symm Charge Force Prop=(Field,Read) pop=mk
 ----------------------------------------------------------------------
 1/10=7,18=10,28=-2,30=1,38=1,125=101/1,3;
 2/12=2,15=1,17=6,18=5,29=2,40=1/2;
 3/5=16,11=2,25=1,30=1,71=1,74=-5,124=31/1,2,3;
 4/5=100/1;
 5/5=2,6=8,38=5/2;
 6/7=2,8=2,9=2,10=2,14=2,15=9,20=1,28=1/1,2;
 7/7=1,16=-2,29=1,30=1/1,2,3,16;
 1/10=7,18=10,28=-2,30=1/3;
 99/12=1/99;
 Leave Link    1 at Sat Jun 19 00:22:13 2021, MaxMem=   134217728 cpu:               0.8 elap:               0.1
 (Enter /APL/ISV/x86_64/gaussian/16/C.01/g16/l101.exe)
 --------------------------------
 Gaussian run for QMMM in genesis
 --------------------------------
 Symbolic Z-matrix:
 Charge = -1 Multiplicity = 1
 P                    -5.24706  -10.57479  -5.38467 
 O                    -5.63113  -10.64044  -3.77716 
 H                    -5.24751  -11.44561  -3.37504 
 O                    -6.09634  -9.22585  -5.78248 
 H                    -7.07569  -9.36782  -5.66172 
 O                    -3.74902  -10.31538  -5.58047 
 O                    -5.81559  -11.79481  -6.13215 
 
 ITRead=  0  0  0  0  0  0  0
 MicOpt= -1 -1 -1 -1 -1 -1 -1
 NAtoms=      7 NQM=        7 NQMF=       0 NMMI=      0 NMMIF=      0
                NMic=       0 NMicF=      0.
                    Isotopes and Nuclear Properties:
 (Nuclear quadrupole moments (NQMom) in fm**2, nuclear magnetic moments (NMagM)
  in nuclear magnetons)

  Atom         1           2           3           4           5           6           7
 IAtWgt=          31          16           1          16           1          16          16
 AtmWgt=  30.9737634  15.9949146   1.0078250  15.9949146   1.0078250  15.9949146  15.9949146
 NucSpn=           1           0           1           0           1           0           0
 AtZEff=  -0.0000000  -0.0000000  -0.0000000  -0.0000000  -0.0000000  -0.0000000  -0.0000000
 NQMom=    0.0000000   0.0000000   0.0000000   0.0000000   0.0000000   0.0000000   0.0000000
 NMagM=    1.1316000   0.0000000   2.7928460   0.0000000   2.7928460   0.0000000   0.0000000
 AtZNuc=  15.0000000   8.0000000   1.0000000   8.0000000   1.0000000   8.0000000   8.0000000
 Background charge distribution read from input stream:
 Point Charges:
 XYZ=   -2.7016  -14.6209  -20.9630 Q=   -0.8340 A=    0.0000 R=    0.0000 C=    0.0000
 XYZ=   -2.7363  -14.8216  -20.0093 Q=    0.4170 A=    0.0000 R=    0.0000 C=    0.0000
 XYZ=   -1.7836  -14.8651  -21.1762 Q=    0.4170 A=    0.0000 R=    0.0000 C=    0.0000
 XYZ=    1.0665   -4.2310  -12.8106 Q=   -0.8340 A=    0.0000 R=    0.0000 C=    0.0000
 XYZ=    0.7756   -3.3720  -13.1822 Q=    0.4170 A=    0.0000 R=    0.0000 C=    0.0000
 XYZ=    1.9599   -3.9879  -12.5173 Q=    0.4170 A=    0.0000 R=    0.0000 C=    0.0000
 XYZ=    5.0563  -20.5448   -5.6894 Q=   -0.8340 A=    0.0000 R=    0.0000 C=    0.0000
 XYZ=    4.2513  -20.3410   -6.1654 Q=    0.4170 A=    0.0000 R=    0.0000 C=    0.0000
 XYZ=    5.5003  -19.7018   -5.5967 Q=    0.4170 A=    0.0000 R=    0.0000 C=    0.0000
 XYZ=  -19.6475  -15.7506   -0.6727 Q=   -0.8340 A=    0.0000 R=    0.0000 C=    0.0000
 XYZ=  -19.9612  -15.2015    0.0747 Q=    0.4170 A=    0.0000 R=    0.0000 C=    0.0000
 XYZ=  -19.3554  -16.5578   -0.1947 Q=    0.4170 A=    0.0000 R=    0.0000 C=    0.0000
 XYZ=   -5.5930   -9.4960   11.9470 Q=   -0.8340 A=    0.0000 R=    0.0000 C=    0.0000
 XYZ=   -4.8730   -9.3010   11.3470 Q=    0.4170 A=    0.0000 R=    0.0000 C=    0.0000
 XYZ=   -5.2990  -10.2650   12.4340 Q=    0.4170 A=    0.0000 R=    0.0000 C=    0.0000
 XYZ=  -18.0031  -15.6880    2.0983 Q=   -0.8340 A=    0.0000 R=    0.0000 C=    0.0000
 XYZ=  -18.8216  -16.2112    2.2072 Q=    0.4170 A=    0.0000 R=    0.0000 C=    0.0000
 XYZ=  -17.3289  -16.3430    2.3420 Q=    0.4170 A=    0.0000 R=    0.0000 C=    0.0000
 XYZ=  -20.5030   -8.7000  -18.3330 Q=   -0.8340 A=    0.0000 R=    0.0000 C=    0.0000
 XYZ=  -20.1000   -7.9550  -18.7790 Q=    0.4170 A=    0.0000 R=    0.0000 C=    0.0000
 XYZ=  -19.9410   -9.4440  -18.5520 Q=    0.4170 A=    0.0000 R=    0.0000 C=    0.0000
 XYZ=  -21.7340  -19.2730   -3.2290 Q=   -0.8340 A=    0.0000 R=    0.0000 C=    0.0000
 XYZ=  -21.4420  -19.8120   -3.9640 Q=    0.4170 A=    0.0000 R=    0.0000 C=    0.0000
 XYZ=  -21.3640  -18.4080   -3.4020 Q=    0.4170 A=    0.0000 R=    0.0000 C=    0.0000
 XYZ=   -7.2673    2.3684    5.3258 Q=   -0.8340 A=    0.0000 R=    0.0000 C=    0.0000
 XYZ=   -7.5199    3.0111    4.6422 Q=    0.4170 A=    0.0000 R=    0.0000 C=    0.0000
 XYZ=   -7.7475    2.7052    6.1097 Q=    0.4170 A=    0.0000 R=    0.0000 C=    0.0000
 XYZ=  -20.7830  -19.9770   -0.1600 Q=   -0.8340 A=    0.0000 R=    0.0000 C=    0.0000
 XYZ=  -21.3390  -19.8850   -0.9340 Q=    0.4170 A=    0.0000 R=    0.0000 C=    0.0000
 XYZ=  -20.1610  -20.6670   -0.3920 Q=    0.4170 A=    0.0000 R=    0.0000 C=    0.0000
 XYZ=   -1.4606  -18.7655    3.7945 Q=   -0.8340 A=    0.0000 R=    0.0000 C=    0.0000
 XYZ=   -1.3243  -19.6694    3.4431 Q=    0.4170 A=    0.0000 R=    0.0000 C=    0.0000
 XYZ=   -2.2158  -18.9546    4.3857 Q=    0.4170 A=    0.0000 R=    0.0000 C=    0.0000
 XYZ=  -20.9772  -14.2502    1.2320 Q=   -0.8340 A=    0.0000 R=    0.0000 C=    0.0000
 XYZ=  -20.7459  -13.3255    1.4496 Q=    0.4170 A=    0.0000 R=    0.0000 C=    0.0000
 XYZ=  -21.5772  -14.0985    0.4712 Q=    0.4170 A=    0.0000 R=    0.0000 C=    0.0000
 XYZ=  -22.5140  -16.5510    6.1750 Q=   -0.8340 A=    0.0000 R=    0.0000 C=    0.0000
 XYZ=  -22.8920  -16.5770    7.0540 Q=    0.4170 A=    0.0000 R=    0.0000 C=    0.0000
 XYZ=  -22.7990  -17.3680    5.7660 Q=    0.4170 A=    0.0000 R=    0.0000 C=    0.0000
 XYZ=   -4.0865  -13.3077    9.3638 Q=   -0.8340 A=    0.0000 R=    0.0000 C=    0.0000
 XYZ=   -4.4596  -12.8258   10.1330 Q=    0.4170 A=    0.0000 R=    0.0000 C=    0.0000
 XYZ=   -3.5144  -12.5946    9.0100 Q=    0.4170 A=    0.0000 R=    0.0000 C=    0.0000
 XYZ=   -3.3718  -21.5065    0.8343 Q=   -0.8340 A=    0.0000 R=    0.0000 C=    0.0000
 XYZ=   -3.9007  -22.3337    0.8065 Q=    0.4170 A=    0.0000 R=    0.0000 C=    0.0000
 XYZ=   -4.0649  -20.8584    0.5936 Q=    0.4170 A=    0.0000 R=    0.0000 C=    0.0000
 XYZ=   -9.0871  -24.0924  -11.3730 Q=   -0.8340 A=    0.0000 R=    0.0000 C=    0.0000
 XYZ=   -8.8476  -23.3125  -10.8288 Q=    0.4170 A=    0.0000 R=    0.0000 C=    0.0000
 XYZ=   -8.4412  -24.7354  -11.0199 Q=    0.4170 A=    0.0000 R=    0.0000 C=    0.0000
 XYZ=  -19.2514  -13.3565  -14.3810 Q=   -0.8340 A=    0.0000 R=    0.0000 C=    0.0000
 XYZ=  -19.2537  -13.1119  -13.4272 Q=    0.4170 A=    0.0000 R=    0.0000 C=    0.0000
 XYZ=  -20.2038  -13.3619  -14.5828 Q=    0.4170 A=    0.0000 R=    0.0000 C=    0.0000
 XYZ=  -17.7510    1.0020  -15.1100 Q=   -0.8340 A=    0.0000 R=    0.0000 C=    0.0000
 XYZ=  -17.1890    0.2420  -14.9580 Q=    0.4170 A=    0.0000 R=    0.0000 C=    0.0000
 XYZ=  -17.2010    1.7550  -14.8950 Q=    0.4170 A=    0.0000 R=    0.0000 C=    0.0000
 XYZ=   -3.7048   -6.9812    4.1030 Q=   -0.8340 A=    0.0000 R=    0.0000 C=    0.0000
 XYZ=   -4.3159   -6.2637    3.8388 Q=    0.4170 A=    0.0000 R=    0.0000 C=    0.0000
 XYZ=   -3.6524   -6.7974    5.0705 Q=    0.4170 A=    0.0000 R=    0.0000 C=    0.0000
 XYZ=    5.9960  -25.0310   -6.8440 Q=   -0.8340 A=    0.0000 R=    0.0000 C=    0.0000
 XYZ=    6.2450  -25.2160   -7.7490 Q=    0.4170 A=    0.0000 R=    0.0000 C=    0.0000
 XYZ=    6.5630  -25.5950   -6.3180 Q=    0.4170 A=    0.0000 R=    0.0000 C=    0.0000
 XYZ=  -18.1289  -13.1344    3.0155 Q=   -0.8340 A=    0.0000 R=    0.0000 C=    0.0000
 XYZ=  -18.1665  -14.0584    2.6831 Q=    0.4170 A=    0.0000 R=    0.0000 C=    0.0000
 XYZ=  -19.0565  -13.0012    3.3096 Q=    0.4170 A=    0.0000 R=    0.0000 C=    0.0000
 XYZ=    5.1020  -24.2100  -13.9410 Q=   -0.8340 A=    0.0000 R=    0.0000 C=    0.0000
 XYZ=    4.2860  -24.5860  -14.2730 Q=    0.4170 A=    0.0000 R=    0.0000 C=    0.0000
 XYZ=    5.5770  -24.9540  -13.5710 Q=    0.4170 A=    0.0000 R=    0.0000 C=    0.0000
 XYZ=  -11.7830    2.5430  -17.5750 Q=   -0.8340 A=    0.0000 R=    0.0000 C=    0.0000
 XYZ=  -11.3150    1.9990  -18.2080 Q=    0.4170 A=    0.0000 R=    0.0000 C=    0.0000
 XYZ=  -11.5370    2.1850  -16.7220 Q=    0.4170 A=    0.0000 R=    0.0000 C=    0.0000
 XYZ=    6.7990  -21.9970    4.9320 Q=   -0.8340 A=    0.0000 R=    0.0000 C=    0.0000
 XYZ=    6.5480  -21.0880    5.0980 Q=    0.4170 A=    0.0000 R=    0.0000 C=    0.0000
 XYZ=    7.1110  -21.9980    4.0270 Q=    0.4170 A=    0.0000 R=    0.0000 C=    0.0000
 XYZ=    5.2787  -13.1718    2.4948 Q=   -0.8340 A=    0.0000 R=    0.0000 C=    0.0000
 XYZ=    6.1912  -13.0213    2.1648 Q=    0.4170 A=    0.0000 R=    0.0000 C=    0.0000
 XYZ=    5.4527  -13.5075    3.3994 Q=    0.4170 A=    0.0000 R=    0.0000 C=    0.0000
 XYZ=  -11.1612  -27.0983   -7.6161 Q=   -0.8340 A=    0.0000 R=    0.0000 C=    0.0000
 XYZ=  -11.3180  -27.2458   -8.5488 Q=    0.4170 A=    0.0000 R=    0.0000 C=    0.0000
 XYZ=  -10.3485  -27.5693   -7.4320 Q=    0.4170 A=    0.0000 R=    0.0000 C=    0.0000
 XYZ=  -25.2000  -16.9990    1.4350 Q=   -0.8340 A=    0.0000 R=    0.0000 C=    0.0000
 XYZ=  -25.5770  -17.8140    1.1020 Q=    0.4170 A=    0.0000 R=    0.0000 C=    0.0000
 XYZ=  -24.2810  -17.2090    1.5990 Q=    0.4170 A=    0.0000 R=    0.0000 C=    0.0000
 XYZ=   10.7016   -5.7312   -6.7345 Q=   -0.8340 A=    0.0000 R=    0.0000 C=    0.0000
 XYZ=    9.8987   -5.9177   -6.2019 Q=    0.4170 A=    0.0000 R=    0.0000 C=    0.0000
 XYZ=   10.6199   -6.3921   -7.4495 Q=    0.4170 A=    0.0000 R=    0.0000 C=    0.0000
 XYZ=   -9.3306  -12.3399    5.8732 Q=   -0.8340 A=    0.0000 R=    0.0000 C=    0.0000
 XYZ=   -9.4805  -12.6450    4.9532 Q=    0.4170 A=    0.0000 R=    0.0000 C=    0.0000
 XYZ=   -9.5521  -11.3897    5.7785 Q=    0.4170 A=    0.0000 R=    0.0000 C=    0.0000
 XYZ=  -14.2442   -3.7202  -19.2742 Q=   -0.8340 A=    0.0000 R=    0.0000 C=    0.0000
 XYZ=  -14.3203   -4.0073  -20.1842 Q=    0.4170 A=    0.0000 R=    0.0000 C=    0.0000
 XYZ=  -14.3791   -2.7732  -19.3094 Q=    0.4170 A=    0.0000 R=    0.0000 C=    0.0000
 XYZ=   -8.2723  -14.5097  -19.5751 Q=   -0.8340 A=    0.0000 R=    0.0000 C=    0.0000
 XYZ=   -7.6594  -14.2642  -20.2895 Q=    0.4170 A=    0.0000 R=    0.0000 C=    0.0000
 XYZ=   -7.8267  -15.3233  -19.2381 Q=    0.4170 A=    0.0000 R=    0.0000 C=    0.0000
 XYZ=   -4.1330    5.8640    5.6920 Q=   -0.8340 A=    0.0000 R=    0.0000 C=    0.0000
 XYZ=   -3.4210    5.9530    6.3250 Q=    0.4170 A=    0.0000 R=    0.0000 C=    0.0000
 XYZ=   -4.1930    4.9220    5.5300 Q=    0.4170 A=    0.0000 R=    0.0000 C=    0.0000
 XYZ=  -15.0281  -11.6530    1.7322 Q=   -0.8340 A=    0.0000 R=    0.0000 C=    0.0000
 XYZ=  -14.6518  -10.8681    2.1735 Q=    0.4170 A=    0.0000 R=    0.0000 C=    0.0000
 XYZ=  -14.2040  -12.0730    1.4110 Q=    0.4170 A=    0.0000 R=    0.0000 C=    0.0000
 XYZ=   -5.3505  -15.8456   -8.0060 Q=   -0.8340 A=    0.0000 R=    0.0000 C=    0.0000
 XYZ=   -4.5965  -16.3413   -8.3518 Q=    0.4170 A=    0.0000 R=    0.0000 C=    0.0000
 XYZ=   -4.9586  -14.9500   -7.9200 Q=    0.4170 A=    0.0000 R=    0.0000 C=    0.0000
 XYZ=  -17.8343   -4.6134  -15.2019 Q=   -0.8340 A=    0.0000 R=    0.0000 C=    0.0000
 XYZ=  -18.2991   -5.4224  -15.4727 Q=    0.4170 A=    0.0000 R=    0.0000 C=    0.0000
 XYZ=  -18.5090   -3.9319  -15.4059 Q=    0.4170 A=    0.0000 R=    0.0000 C=    0.0000
 XYZ=    5.7281  -16.8502   -8.1208 Q=   -0.8340 A=    0.0000 R=    0.0000 C=    0.0000
 XYZ=    6.3665  -16.1412   -7.8738 Q=    0.4170 A=    0.0000 R=    0.0000 C=    0.0000
 XYZ=    5.0165  -16.6122   -7.4992 Q=    0.4170 A=    0.0000 R=    0.0000 C=    0.0000
 XYZ=  -11.9690  -26.2380  -16.1010 Q=   -0.8340 A=    0.0000 R=    0.0000 C=    0.0000
 XYZ=  -12.9220  -26.3080  -16.0580 Q=    0.4170 A=    0.0000 R=    0.0000 C=    0.0000
 XYZ=  -11.6790  -27.0940  -16.4170 Q=    0.4170 A=    0.0000 R=    0.0000 C=    0.0000
 XYZ=  -13.7270    7.0930  -10.9470 Q=   -0.8340 A=    0.0000 R=    0.0000 C=    0.0000
 XYZ=  -13.7370    7.9660  -11.3390 Q=    0.4170 A=    0.0000 R=    0.0000 C=    0.0000
 XYZ=  -12.8890    6.7180  -11.2160 Q=    0.4170 A=    0.0000 R=    0.0000 C=    0.0000
 XYZ=    7.5890    1.3110  -15.5450 Q=   -0.8340 A=    0.0000 R=    0.0000 C=    0.0000
 XYZ=    8.1750    1.4020  -14.7940 Q=    0.4170 A=    0.0000 R=    0.0000 C=    0.0000
 XYZ=    7.2870    2.2020  -15.7240 Q=    0.4170 A=    0.0000 R=    0.0000 C=    0.0000
 XYZ=  -17.5940  -10.4620   10.7710 Q=   -0.8340 A=    0.0000 R=    0.0000 C=    0.0000
 XYZ=  -17.9620  -10.2380   11.6250 Q=    0.4170 A=    0.0000 R=    0.0000 C=    0.0000
 XYZ=  -16.8110   -9.9170   10.6960 Q=    0.4170 A=    0.0000 R=    0.0000 C=    0.0000
 XYZ=   -4.4890   -0.0580  -22.2840 Q=   -0.8340 A=    0.0000 R=    0.0000 C=    0.0000
 XYZ=   -3.9370   -0.8150  -22.4830 Q=    0.4170 A=    0.0000 R=    0.0000 C=    0.0000
 XYZ=   -5.0980   -0.3750  -21.6170 Q=    0.4170 A=    0.0000 R=    0.0000 C=    0.0000
 XYZ=  -21.8117   -3.6425   -5.1271 Q=   -0.8340 A=    0.0000 R=    0.0000 C=    0.0000
 XYZ=  -22.6922   -3.8736   -5.4232 Q=    0.4170 A=    0.0000 R=    0.0000 C=    0.0000
 XYZ=  -21.2868   -4.4235   -5.3025 Q=    0.4170 A=    0.0000 R=    0.0000 C=    0.0000
 XYZ=  -18.7740   -1.1270  -16.7720 Q=   -0.8340 A=    0.0000 R=    0.0000 C=    0.0000
 XYZ=  -19.3860   -1.7410  -16.3670 Q=    0.4170 A=    0.0000 R=    0.0000 C=    0.0000
 XYZ=  -18.4860   -0.5650  -16.0530 Q=    0.4170 A=    0.0000 R=    0.0000 C=    0.0000
 XYZ=  -16.1155  -23.4797   -3.4881 Q=   -0.8340 A=    0.0000 R=    0.0000 C=    0.0000
 XYZ=  -15.5352  -22.8762   -3.0240 Q=    0.4170 A=    0.0000 R=    0.0000 C=    0.0000
 XYZ=  -15.5677  -24.2414   -3.6776 Q=    0.4170 A=    0.0000 R=    0.0000 C=    0.0000
 XYZ=    9.5420  -21.0270  -12.6220 Q=   -0.8340 A=    0.0000 R=    0.0000 C=    0.0000
 XYZ=   10.3070  -20.4540  -12.5650 Q=    0.4170 A=    0.0000 R=    0.0000 C=    0.0000
 XYZ=    9.6990  -21.5590  -13.4020 Q=    0.4170 A=    0.0000 R=    0.0000 C=    0.0000
 XYZ=  -12.0917   -7.4247    3.7445 Q=   -0.8340 A=    0.0000 R=    0.0000 C=    0.0000
 XYZ=  -11.2224   -7.0139    3.9552 Q=    0.4170 A=    0.0000 R=    0.0000 C=    0.0000
 XYZ=  -12.3891   -7.6425    4.6636 Q=    0.4170 A=    0.0000 R=    0.0000 C=    0.0000
 XYZ=    9.4390   -5.1810    4.5990 Q=   -0.8340 A=    0.0000 R=    0.0000 C=    0.0000
 XYZ=    9.4310   -5.6600    3.7710 Q=    0.4170 A=    0.0000 R=    0.0000 C=    0.0000
 XYZ=    9.3890   -5.8610    5.2710 Q=    0.4170 A=    0.0000 R=    0.0000 C=    0.0000
 XYZ=    0.9791  -16.8286    7.3106 Q=   -0.8340 A=    0.0000 R=    0.0000 C=    0.0000
 XYZ=    0.0879  -16.9513    6.9295 Q=    0.4170 A=    0.0000 R=    0.0000 C=    0.0000
 XYZ=    1.1832  -17.7678    7.5102 Q=    0.4170 A=    0.0000 R=    0.0000 C=    0.0000
 XYZ=   -2.3670  -28.1780   -8.6920 Q=   -0.8340 A=    0.0000 R=    0.0000 C=    0.0000
 XYZ=   -2.3860  -28.7870   -9.4300 Q=    0.4170 A=    0.0000 R=    0.0000 C=    0.0000
 XYZ=   -2.0390  -28.6990   -7.9590 Q=    0.4170 A=    0.0000 R=    0.0000 C=    0.0000
 XYZ=   -3.8306   -6.0198    6.6116 Q=   -0.8340 A=    0.0000 R=    0.0000 C=    0.0000
 XYZ=   -4.4478   -5.2834    6.7658 Q=    0.4170 A=    0.0000 R=    0.0000 C=    0.0000
 XYZ=   -3.5077   -6.2157    7.5093 Q=    0.4170 A=    0.0000 R=    0.0000 C=    0.0000
 XYZ=  -13.4680  -12.0270  -23.1910 Q=   -0.8340 A=    0.0000 R=    0.0000 C=    0.0000
 XYZ=  -14.0470  -12.6070  -22.6960 Q=    0.4170 A=    0.0000 R=    0.0000 C=    0.0000
 XYZ=  -12.6100  -12.4490  -23.1460 Q=    0.4170 A=    0.0000 R=    0.0000 C=    0.0000
 XYZ=   -1.8851  -11.1268   -7.3091 Q=   -0.8340 A=    0.0000 R=    0.0000 C=    0.0000
 XYZ=   -1.7535  -12.0913   -7.1886 Q=    0.4170 A=    0.0000 R=    0.0000 C=    0.0000
 XYZ=   -2.5467  -10.9175   -6.6069 Q=    0.4170 A=    0.0000 R=    0.0000 C=    0.0000
 XYZ=   -6.0752  -17.2186  -14.2156 Q=   -0.8340 A=    0.0000 R=    0.0000 C=    0.0000
 XYZ=   -6.6574  -16.4592  -14.4066 Q=    0.4170 A=    0.0000 R=    0.0000 C=    0.0000
 XYZ=   -6.6966  -17.9439  -14.0105 Q=    0.4170 A=    0.0000 R=    0.0000 C=    0.0000
 XYZ=  -18.4543   -7.0753  -11.2768 Q=   -0.8340 A=    0.0000 R=    0.0000 C=    0.0000
 XYZ=  -18.5624   -7.5165  -12.1449 Q=    0.4170 A=    0.0000 R=    0.0000 C=    0.0000
 XYZ=  -18.2170   -6.1697  -11.5786 Q=    0.4170 A=    0.0000 R=    0.0000 C=    0.0000
 XYZ=  -10.6193    0.4849   -9.4142 Q=   -0.8340 A=    0.0000 R=    0.0000 C=    0.0000
 XYZ=  -10.2259    1.0059   -8.6831 Q=    0.4170 A=    0.0000 R=    0.0000 C=    0.0000
 XYZ=   -9.9614   -0.2362   -9.4780 Q=    0.4170 A=    0.0000 R=    0.0000 C=    0.0000
 XYZ=  -21.7178  -17.6259   -8.9389 Q=   -0.8340 A=    0.0000 R=    0.0000 C=    0.0000
 XYZ=  -20.7764  -17.8892   -8.9522 Q=    0.4170 A=    0.0000 R=    0.0000 C=    0.0000
 XYZ=  -21.6443  -16.6688   -8.7697 Q=    0.4170 A=    0.0000 R=    0.0000 C=    0.0000
 XYZ=   -5.1474  -23.5862    0.6206 Q=   -0.8340 A=    0.0000 R=    0.0000 C=    0.0000
 XYZ=   -4.9064  -24.4273    0.1766 Q=    0.4170 A=    0.0000 R=    0.0000 C=    0.0000
 XYZ=   -5.7956  -23.1989   -0.0001 Q=    0.4170 A=    0.0000 R=    0.0000 C=    0.0000
 XYZ=  -11.8880  -15.4980   11.7450 Q=   -0.8340 A=    0.0000 R=    0.0000 C=    0.0000
 XYZ=  -12.7380  -15.5450   11.3080 Q=    0.4170 A=    0.0000 R=    0.0000 C=    0.0000
 XYZ=  -11.7160  -14.5610   11.8370 Q=    0.4170 A=    0.0000 R=    0.0000 C=    0.0000
 XYZ=    9.7207  -12.1566   -7.4843 Q=   -0.8340 A=    0.0000 R=    0.0000 C=    0.0000
 XYZ=    9.7302  -12.9514   -6.9178 Q=    0.4170 A=    0.0000 R=    0.0000 C=    0.0000
 XYZ=   10.2367  -11.5310   -6.9257 Q=    0.4170 A=    0.0000 R=    0.0000 C=    0.0000
 XYZ=   -2.9140  -20.8773  -13.3906 Q=   -0.8340 A=    0.0000 R=    0.0000 C=    0.0000
 XYZ=   -1.9643  -21.0558  -13.2140 Q=    0.4170 A=    0.0000 R=    0.0000 C=    0.0000
 XYZ=   -2.8467  -19.9355  -13.6684 Q=    0.4170 A=    0.0000 R=    0.0000 C=    0.0000
 XYZ=   -0.0800    2.7290  -16.4170 Q=   -0.8340 A=    0.0000 R=    0.0000 C=    0.0000
 XYZ=    0.8110    2.4130  -16.5680 Q=    0.4170 A=    0.0000 R=    0.0000 C=    0.0000
 XYZ=   -0.0200    3.2370  -15.6080 Q=    0.4170 A=    0.0000 R=    0.0000 C=    0.0000
 XYZ=  -15.6501   -9.2532   -8.0036 Q=   -0.8340 A=    0.0000 R=    0.0000 C=    0.0000
 XYZ=  -14.8864   -9.8656   -8.0837 Q=    0.4170 A=    0.0000 R=    0.0000 C=    0.0000
 XYZ=  -16.2625   -9.8110   -7.4705 Q=    0.4170 A=    0.0000 R=    0.0000 C=    0.0000
 XYZ=   -9.8333  -12.9524    3.2331 Q=   -0.8340 A=    0.0000 R=    0.0000 C=    0.0000
 XYZ=  -10.5303  -12.2634    3.2653 Q=    0.4170 A=    0.0000 R=    0.0000 C=    0.0000
 XYZ=   -9.4278  -12.7422    2.3662 Q=    0.4170 A=    0.0000 R=    0.0000 C=    0.0000
 XYZ=   -6.9900    8.5940  -10.5640 Q=   -0.8340 A=    0.0000 R=    0.0000 C=    0.0000
 XYZ=   -7.2530    7.7260  -10.2590 Q=    0.4170 A=    0.0000 R=    0.0000 C=    0.0000
 XYZ=   -7.7750    8.9510  -10.9790 Q=    0.4170 A=    0.0000 R=    0.0000 C=    0.0000
 XYZ=   -9.4878  -16.1503   -4.6772 Q=   -0.8340 A=    0.0000 R=    0.0000 C=    0.0000
 XYZ=   -9.0962  -16.4220   -3.8207 Q=    0.4170 A=    0.0000 R=    0.0000 C=    0.0000
 XYZ=   -8.6811  -15.8740   -5.1541 Q=    0.4170 A=    0.0000 R=    0.0000 C=    0.0000
 XYZ=   -5.6390  -16.7630   12.5490 Q=   -0.8340 A=    0.0000 R=    0.0000 C=    0.0000
 XYZ=   -5.4510  -16.0280   11.9660 Q=    0.4170 A=    0.0000 R=    0.0000 C=    0.0000
 XYZ=   -4.7780  -17.0980   12.7990 Q=    0.4170 A=    0.0000 R=    0.0000 C=    0.0000
 XYZ=    7.9770   -3.4280    7.8400 Q=   -0.8340 A=    0.0000 R=    0.0000 C=    0.0000
 XYZ=    8.6330   -2.7740    7.6000 Q=    0.4170 A=    0.0000 R=    0.0000 C=    0.0000
 XYZ=    7.5300   -3.6330    7.0190 Q=    0.4170 A=    0.0000 R=    0.0000 C=    0.0000
 XYZ=  -17.1537  -10.1980    6.0226 Q=   -0.8340 A=    0.0000 R=    0.0000 C=    0.0000
 XYZ=  -16.9878  -11.1212    5.7395 Q=    0.4170 A=    0.0000 R=    0.0000 C=    0.0000
 XYZ=  -16.7612   -9.6737    5.2940 Q=    0.4170 A=    0.0000 R=    0.0000 C=    0.0000
 XYZ=  -13.8743   -9.3191    2.8329 Q=   -0.8340 A=    0.0000 R=    0.0000 C=    0.0000
 XYZ=  -14.6454   -9.0890    3.4062 Q=    0.4170 A=    0.0000 R=    0.0000 C=    0.0000
 XYZ=  -13.2741   -8.5807    3.0684 Q=    0.4170 A=    0.0000 R=    0.0000 C=    0.0000
 XYZ=    9.0640  -11.5730    5.2100 Q=   -0.8340 A=    0.0000 R=    0.0000 C=    0.0000
 XYZ=    9.2700  -11.9060    6.0840 Q=    0.4170 A=    0.0000 R=    0.0000 C=    0.0000
 XYZ=    9.2490  -12.3070    4.6240 Q=    0.4170 A=    0.0000 R=    0.0000 C=    0.0000
 XYZ=  -18.5341  -16.0544  -14.6831 Q=   -0.8340 A=    0.0000 R=    0.0000 C=    0.0000
 XYZ=  -18.6738  -15.0832  -14.6350 Q=    0.4170 A=    0.0000 R=    0.0000 C=    0.0000
 XYZ=  -19.3368  -16.3648  -15.1510 Q=    0.4170 A=    0.0000 R=    0.0000 C=    0.0000
 XYZ=   -4.9460    7.1710    1.2470 Q=   -0.8340 A=    0.0000 R=    0.0000 C=    0.0000
 XYZ=   -5.0380    7.0520    2.1920 Q=    0.4170 A=    0.0000 R=    0.0000 C=    0.0000
 XYZ=   -5.6590    7.7640    1.0100 Q=    0.4170 A=    0.0000 R=    0.0000 C=    0.0000
 XYZ=   -1.5478  -17.3128    6.2560 Q=   -0.8340 A=    0.0000 R=    0.0000 C=    0.0000
 XYZ=   -1.2439  -17.4991    5.3485 Q=    0.4170 A=    0.0000 R=    0.0000 C=    0.0000
 XYZ=   -2.2328  -18.0066    6.3231 Q=    0.4170 A=    0.0000 R=    0.0000 C=    0.0000
 XYZ=   10.1910  -18.5640   -8.9970 Q=   -0.8340 A=    0.0000 R=    0.0000 C=    0.0000
 XYZ=   10.2560  -19.2990   -9.6060 Q=    0.4170 A=    0.0000 R=    0.0000 C=    0.0000
 XYZ=    9.6800  -17.9060   -9.4680 Q=    0.4170 A=    0.0000 R=    0.0000 C=    0.0000
 XYZ=   -4.7980   -4.5460   14.4130 Q=   -0.8340 A=    0.0000 R=    0.0000 C=    0.0000
 XYZ=   -5.0430   -5.0620   15.1810 Q=    0.4170 A=    0.0000 R=    0.0000 C=    0.0000
 XYZ=   -4.5650   -5.1970   13.7510 Q=    0.4170 A=    0.0000 R=    0.0000 C=    0.0000
 XYZ=   -3.9017   -8.8040  -21.7840 Q=   -0.8340 A=    0.0000 R=    0.0000 C=    0.0000
 XYZ=   -3.5667   -9.4161  -21.1288 Q=    0.4170 A=    0.0000 R=    0.0000 C=    0.0000
 XYZ=   -3.2649   -8.0894  -21.7926 Q=    0.4170 A=    0.0000 R=    0.0000 C=    0.0000
 XYZ=  -25.9690  -18.4970   -1.7330 Q=   -0.8340 A=    0.0000 R=    0.0000 C=    0.0000
 XYZ=  -26.2680  -18.2900   -2.6180 Q=    0.4170 A=    0.0000 R=    0.0000 C=    0.0000
 XYZ=  -25.1230  -18.0560   -1.6570 Q=    0.4170 A=    0.0000 R=    0.0000 C=    0.0000
 XYZ=  -15.6484   -3.4826   -7.2187 Q=   -0.8340 A=    0.0000 R=    0.0000 C=    0.0000
 XYZ=  -15.7523   -3.7713   -8.1466 Q=    0.4170 A=    0.0000 R=    0.0000 C=    0.0000
 XYZ=  -14.7633   -3.0660   -7.2458 Q=    0.4170 A=    0.0000 R=    0.0000 C=    0.0000
 XYZ=  -25.1130  -15.3660   -0.8340 Q=   -0.8340 A=    0.0000 R=    0.0000 C=    0.0000
 XYZ=  -25.4190  -15.7920   -1.6350 Q=    0.4170 A=    0.0000 R=    0.0000 C=    0.0000
 XYZ=  -25.1990  -16.0380   -0.1570 Q=    0.4170 A=    0.0000 R=    0.0000 C=    0.0000
 XYZ=   -7.6525  -19.7122  -16.1807 Q=   -0.8340 A=    0.0000 R=    0.0000 C=    0.0000
 XYZ=   -6.8973  -19.3210  -16.6421 Q=    0.4170 A=    0.0000 R=    0.0000 C=    0.0000
 XYZ=   -7.3549  -19.6787  -15.2440 Q=    0.4170 A=    0.0000 R=    0.0000 C=    0.0000
 XYZ=  -11.2588   -0.3872   -4.7469 Q=   -0.8340 A=    0.0000 R=    0.0000 C=    0.0000
 XYZ=  -10.5836   -0.9320   -5.1951 Q=    0.4170 A=    0.0000 R=    0.0000 C=    0.0000
 XYZ=  -11.9071   -1.0737   -4.4892 Q=    0.4170 A=    0.0000 R=    0.0000 C=    0.0000
 XYZ=    1.5232   -0.3954  -10.8272 Q=   -0.8340 A=    0.0000 R=    0.0000 C=    0.0000
 XYZ=    0.6086   -0.3983  -11.1928 Q=    0.4170 A=    0.0000 R=    0.0000 C=    0.0000
 XYZ=    1.6799    0.5794  -10.8427 Q=    0.4170 A=    0.0000 R=    0.0000 C=    0.0000
 XYZ=   -5.1288    5.6755   -3.1341 Q=   -0.8340 A=    0.0000 R=    0.0000 C=    0.0000
 XYZ=   -4.2967    5.1812   -2.9873 Q=    0.4170 A=    0.0000 R=    0.0000 C=    0.0000
 XYZ=   -5.7803    4.9451   -3.0540 Q=    0.4170 A=    0.0000 R=    0.0000 C=    0.0000
 XYZ=    5.3170    0.2840  -16.9880 Q=   -0.8340 A=    0.0000 R=    0.0000 C=    0.0000
 XYZ=    4.5690    0.8710  -17.1010 Q=    0.4170 A=    0.0000 R=    0.0000 C=    0.0000
 XYZ=    5.8920    0.7440  -16.3760 Q=    0.4170 A=    0.0000 R=    0.0000 C=    0.0000
 XYZ=   -9.8520    8.8440    1.8950 Q=   -0.8340 A=    0.0000 R=    0.0000 C=    0.0000
 XYZ=  -10.7200    9.0520    2.2430 Q=    0.4170 A=    0.0000 R=    0.0000 C=    0.0000
 XYZ=   -9.8490    7.8910    1.8120 Q=    0.4170 A=    0.0000 R=    0.0000 C=    0.0000
 XYZ=  -18.8466  -22.1459   -7.9884 Q=   -0.8340 A=    0.0000 R=    0.0000 C=    0.0000
 XYZ=  -18.8937  -21.5713   -7.2244 Q=    0.4170 A=    0.0000 R=    0.0000 C=    0.0000
 XYZ=  -19.7592  -22.3532   -8.1895 Q=    0.4170 A=    0.0000 R=    0.0000 C=    0.0000
 XYZ=    0.9530   -4.3560   11.4070 Q=   -0.8340 A=    0.0000 R=    0.0000 C=    0.0000
 XYZ=    0.8480   -3.4320   11.1790 Q=    0.4170 A=    0.0000 R=    0.0000 C=    0.0000
 XYZ=    1.6480   -4.3630   12.0650 Q=    0.4170 A=    0.0000 R=    0.0000 C=    0.0000
 XYZ=   -0.7845    0.8610    1.1777 Q=   -0.8340 A=    0.0000 R=    0.0000 C=    0.0000
 XYZ=   -1.0357    0.8126    2.1294 Q=    0.4170 A=    0.0000 R=    0.0000 C=    0.0000
 XYZ=   -1.3548    1.6203    0.9059 Q=    0.4170 A=    0.0000 R=    0.0000 C=    0.0000
 XYZ=  -19.4450  -19.8340  -18.6330 Q=   -0.8340 A=    0.0000 R=    0.0000 C=    0.0000
 XYZ=  -18.9380  -19.1450  -18.2030 Q=    0.4170 A=    0.0000 R=    0.0000 C=    0.0000
 XYZ=  -20.3540  -19.6420  -18.4030 Q=    0.4170 A=    0.0000 R=    0.0000 C=    0.0000
 XYZ=  -16.8476  -16.8044  -10.7446 Q=   -0.8340 A=    0.0000 R=    0.0000 C=    0.0000
 XYZ=  -16.5574  -17.7343  -10.8176 Q=    0.4170 A=    0.0000 R=    0.0000 C=    0.0000
 XYZ=  -16.1730  -16.3325  -11.2782 Q=    0.4170 A=    0.0000 R=    0.0000 C=    0.0000
 XYZ=   -4.2229    0.3868  -10.1606 Q=   -0.8340 A=    0.0000 R=    0.0000 C=    0.0000
 XYZ=   -5.1536    0.1168  -10.2854 Q=    0.4170 A=    0.0000 R=    0.0000 C=    0.0000
 XYZ=   -4.2870    1.3274  -10.4139 Q=    0.4170 A=    0.0000 R=    0.0000 C=    0.0000
 XYZ=  -22.3160   -6.6315   -7.8073 Q=   -0.8340 A=    0.0000 R=    0.0000 C=    0.0000
 XYZ=  -21.9694   -6.5544   -6.8986 Q=    0.4170 A=    0.0000 R=    0.0000 C=    0.0000
 XYZ=  -21.5376   -7.0125   -8.2614 Q=    0.4170 A=    0.0000 R=    0.0000 C=    0.0000
 XYZ=   10.4640   -3.2980  -17.0380 Q=   -0.8340 A=    0.0000 R=    0.0000 C=    0.0000
 XYZ=    9.9960   -2.6400  -16.5240 Q=    0.4170 A=    0.0000 R=    0.0000 C=    0.0000
 XYZ=    9.8830   -4.0590  -17.0390 Q=    0.4170 A=    0.0000 R=    0.0000 C=    0.0000
 XYZ=  -14.1795  -15.5198    5.0542 Q=   -0.8340 A=    0.0000 R=    0.0000 C=    0.0000
 XYZ=  -14.6535  -15.8642    4.2731 Q=    0.4170 A=    0.0000 R=    0.0000 C=    0.0000
 XYZ=  -13.8142  -14.6958    4.6733 Q=    0.4170 A=    0.0000 R=    0.0000 C=    0.0000
 XYZ=   -7.4919    4.9266   -6.2907 Q=   -0.8340 A=    0.0000 R=    0.0000 C=    0.0000
 XYZ=   -6.9373    4.1143   -6.2581 Q=    0.4170 A=    0.0000 R=    0.0000 C=    0.0000
 XYZ=   -8.0234    4.8137   -5.4752 Q=    0.4170 A=    0.0000 R=    0.0000 C=    0.0000
 XYZ=    0.4480  -27.6550    4.3590 Q=   -0.8340 A=    0.0000 R=    0.0000 C=    0.0000
 XYZ=    0.0130  -28.5030    4.2820 Q=    0.4170 A=    0.0000 R=    0.0000 C=    0.0000
 XYZ=    0.1600  -27.1660    3.5880 Q=    0.4170 A=    0.0000 R=    0.0000 C=    0.0000
 XYZ=   -0.8670   -3.3690  -22.8590 Q=   -0.8340 A=    0.0000 R=    0.0000 C=    0.0000
 XYZ=   -0.3210   -2.8350  -23.4360 Q=    0.4170 A=    0.0000 R=    0.0000 C=    0.0000
 XYZ=   -0.3130   -4.1140  -22.6260 Q=    0.4170 A=    0.0000 R=    0.0000 C=    0.0000
 XYZ=   -5.3399   -4.8691    3.4521 Q=   -0.8340 A=    0.0000 R=    0.0000 C=    0.0000
 XYZ=   -6.2370   -5.1694    3.1839 Q=    0.4170 A=    0.0000 R=    0.0000 C=    0.0000
 XYZ=   -5.0346   -4.5052    2.5904 Q=    0.4170 A=    0.0000 R=    0.0000 C=    0.0000
 XYZ=  -21.3850   -1.0290    5.9340 Q=   -0.8340 A=    0.0000 R=    0.0000 C=    0.0000
 XYZ=  -20.4790   -0.9550    5.6330 Q=    0.4170 A=    0.0000 R=    0.0000 C=    0.0000
 XYZ=  -21.3280   -0.9590    6.8870 Q=    0.4170 A=    0.0000 R=    0.0000 C=    0.0000
 XYZ=    1.7595  -18.5767   -2.3544 Q=   -0.8340 A=    0.0000 R=    0.0000 C=    0.0000
 XYZ=    2.0120  -18.8196   -3.2661 Q=    0.4170 A=    0.0000 R=    0.0000 C=    0.0000
 XYZ=    0.8010  -18.7516   -2.3993 Q=    0.4170 A=    0.0000 R=    0.0000 C=    0.0000
 XYZ=   -1.0837  -10.6084    6.6146 Q=   -0.8340 A=    0.0000 R=    0.0000 C=    0.0000
 XYZ=   -0.7961  -10.4585    5.6897 Q=    0.4170 A=    0.0000 R=    0.0000 C=    0.0000
 XYZ=   -1.0364  -11.5856    6.6663 Q=    0.4170 A=    0.0000 R=    0.0000 C=    0.0000
 XYZ=    9.9160  -17.2030  -17.4370 Q=   -0.8340 A=    0.0000 R=    0.0000 C=    0.0000
 XYZ=   10.5000  -17.1530  -16.6800 Q=    0.4170 A=    0.0000 R=    0.0000 C=    0.0000
 XYZ=   10.4710  -17.5260  -18.1470 Q=    0.4170 A=    0.0000 R=    0.0000 C=    0.0000
 XYZ=    0.6838  -10.2447   -7.7226 Q=   -0.8340 A=    0.0000 R=    0.0000 C=    0.0000
 XYZ=   -0.2074  -10.6585   -7.6712 Q=    0.4170 A=    0.0000 R=    0.0000 C=    0.0000
 XYZ=    1.0736  -10.5417   -6.8735 Q=    0.4170 A=    0.0000 R=    0.0000 C=    0.0000
 XYZ=  -13.2998   -3.8228   -0.3944 Q=   -0.8340 A=    0.0000 R=    0.0000 C=    0.0000
 XYZ=  -13.7151   -3.2167   -1.0322 Q=    0.4170 A=    0.0000 R=    0.0000 C=    0.0000
 XYZ=  -13.4514   -3.3381    0.4436 Q=    0.4170 A=    0.0000 R=    0.0000 C=    0.0000
 XYZ=    2.5280   -0.2490    9.9690 Q=   -0.8340 A=    0.0000 R=    0.0000 C=    0.0000
 XYZ=    3.3950   -0.6560    9.9690 Q=    0.4170 A=    0.0000 R=    0.0000 C=    0.0000
 XYZ=    2.6960    0.6730    9.7720 Q=    0.4170 A=    0.0000 R=    0.0000 C=    0.0000
 XYZ=    6.5970  -12.4080   12.0930 Q=   -0.8340 A=    0.0000 R=    0.0000 C=    0.0000
 XYZ=    5.8020  -12.6770   11.6310 Q=    0.4170 A=    0.0000 R=    0.0000 C=    0.0000
 XYZ=    6.3300  -12.3380   13.0090 Q=    0.4170 A=    0.0000 R=    0.0000 C=    0.0000
 XYZ=  -22.6540   -5.9510    3.8400 Q=   -0.8340 A=    0.0000 R=    0.0000 C=    0.0000
 XYZ=  -22.2600   -6.6000    3.2570 Q=    0.4170 A=    0.0000 R=    0.0000 C=    0.0000
 XYZ=  -22.1030   -5.1750    3.7420 Q=    0.4170 A=    0.0000 R=    0.0000 C=    0.0000
 XYZ=   10.9000  -23.7710  -10.1260 Q=   -0.8340 A=    0.0000 R=    0.0000 C=    0.0000
 XYZ=   10.5590  -23.1230   -9.5100 Q=    0.4170 A=    0.0000 R=    0.0000 C=    0.0000
 XYZ=   11.8490  -23.7350  -10.0110 Q=    0.4170 A=    0.0000 R=    0.0000 C=    0.0000
 XYZ=  -21.4291   -7.9828  -12.6368 Q=   -0.8340 A=    0.0000 R=    0.0000 C=    0.0000
 XYZ=  -21.9836   -8.5343  -13.1886 Q=    0.4170 A=    0.0000 R=    0.0000 C=    0.0000
 XYZ=  -20.5406   -8.1400  -12.9562 Q=    0.4170 A=    0.0000 R=    0.0000 C=    0.0000
 XYZ=  -19.2123  -12.7386  -11.7010 Q=   -0.8340 A=    0.0000 R=    0.0000 C=    0.0000
 XYZ=  -19.5799  -12.3474  -10.8743 Q=    0.4170 A=    0.0000 R=    0.0000 C=    0.0000
 XYZ=  -18.2850  -12.4286  -11.6038 Q=    0.4170 A=    0.0000 R=    0.0000 C=    0.0000
 XYZ=   -2.8598    1.3780   -3.6153 Q=   -0.8340 A=    0.0000 R=    0.0000 C=    0.0000
 XYZ=   -2.8965    0.8895   -4.4668 Q=    0.4170 A=    0.0000 R=    0.0000 C=    0.0000
 XYZ=   -1.9879    1.0617   -3.2954 Q=    0.4170 A=    0.0000 R=    0.0000 C=    0.0000
 XYZ=   -1.8310   -1.0780  -21.3540 Q=   -0.8340 A=    0.0000 R=    0.0000 C=    0.0000
 XYZ=   -1.0370   -0.5570  -21.4780 Q=    0.4170 A=    0.0000 R=    0.0000 C=    0.0000
 XYZ=   -1.7630   -1.7770  -22.0030 Q=    0.4170 A=    0.0000 R=    0.0000 C=    0.0000
 XYZ=  -19.6120  -22.3050  -15.9660 Q=   -0.8340 A=    0.0000 R=    0.0000 C=    0.0000
 XYZ=  -18.8090  -22.7630  -16.2180 Q=    0.4170 A=    0.0000 R=    0.0000 C=    0.0000
 XYZ=  -19.3160  -21.4380  -15.6900 Q=    0.4170 A=    0.0000 R=    0.0000 C=    0.0000
 XYZ=  -11.9128  -21.3583  -15.9506 Q=   -0.8340 A=    0.0000 R=    0.0000 C=    0.0000
 XYZ=  -10.9511  -21.4341  -16.1329 Q=    0.4170 A=    0.0000 R=    0.0000 C=    0.0000
 XYZ=  -12.0357  -22.1854  -15.4450 Q=    0.4170 A=    0.0000 R=    0.0000 C=    0.0000
 XYZ=   -7.9030  -12.4850  -22.8610 Q=   -0.8340 A=    0.0000 R=    0.0000 C=    0.0000
 XYZ=   -7.3680  -12.7750  -23.6010 Q=    0.4170 A=    0.0000 R=    0.0000 C=    0.0000
 XYZ=   -7.3960  -12.7330  -22.0880 Q=    0.4170 A=    0.0000 R=    0.0000 C=    0.0000
 XYZ=  -15.5891   -0.7274  -14.6320 Q=   -0.8340 A=    0.0000 R=    0.0000 C=    0.0000
 XYZ=  -14.8449   -0.6787  -15.2572 Q=    0.4170 A=    0.0000 R=    0.0000 C=    0.0000
 XYZ=  -15.1370   -1.1621  -13.8842 Q=    0.4170 A=    0.0000 R=    0.0000 C=    0.0000
 XYZ=   -5.0399  -24.7274    3.0952 Q=   -0.8340 A=    0.0000 R=    0.0000 C=    0.0000
 XYZ=   -5.2126  -24.2653    2.2454 Q=    0.4170 A=    0.0000 R=    0.0000 C=    0.0000
 XYZ=   -5.9479  -24.9733    3.3532 Q=    0.4170 A=    0.0000 R=    0.0000 C=    0.0000
 XYZ=    0.3710    4.8080  -13.5320 Q=   -0.8340 A=    0.0000 R=    0.0000 C=    0.0000
 XYZ=    0.8550    5.2820  -14.2080 Q=    0.4170 A=    0.0000 R=    0.0000 C=    0.0000
 XYZ=   -0.5490    4.9300  -13.7650 Q=    0.4170 A=    0.0000 R=    0.0000 C=    0.0000
 XYZ=    4.1653   -8.0001    1.7546 Q=   -0.8340 A=    0.0000 R=    0.0000 C=    0.0000
 XYZ=    4.7857   -7.2990    2.0315 Q=    0.4170 A=    0.0000 R=    0.0000 C=    0.0000
 XYZ=    4.3070   -8.6676    2.4604 Q=    0.4170 A=    0.0000 R=    0.0000 C=    0.0000
 XYZ=  -11.7170  -15.1930  -22.4150 Q=   -0.8340 A=    0.0000 R=    0.0000 C=    0.0000
 XYZ=  -10.8950  -15.6220  -22.1770 Q=    0.4170 A=    0.0000 R=    0.0000 C=    0.0000
 XYZ=  -11.4520  -14.3420  -22.7650 Q=    0.4170 A=    0.0000 R=    0.0000 C=    0.0000
 XYZ=    1.6120    1.6970    4.6020 Q=   -0.8340 A=    0.0000 R=    0.0000 C=    0.0000
 XYZ=    0.9040    2.2290    4.2400 Q=    0.4170 A=    0.0000 R=    0.0000 C=    0.0000
 XYZ=    2.3960    1.9920    4.1390 Q=    0.4170 A=    0.0000 R=    0.0000 C=    0.0000
 XYZ=   -8.3740  -28.0310   -8.1660 Q=   -0.8340 A=    0.0000 R=    0.0000 C=    0.0000
 XYZ=   -8.5540  -28.9650   -8.2740 Q=    0.4170 A=    0.0000 R=    0.0000 C=    0.0000
 XYZ=   -8.1760  -27.7210   -9.0500 Q=    0.4170 A=    0.0000 R=    0.0000 C=    0.0000
 XYZ=    2.5969  -14.5569   -4.1339 Q=   -0.8340 A=    0.0000 R=    0.0000 C=    0.0000
 XYZ=    1.8051  -15.0808   -4.4015 Q=    0.4170 A=    0.0000 R=    0.0000 C=    0.0000
 XYZ=    2.9347  -15.1215   -3.4049 Q=    0.4170 A=    0.0000 R=    0.0000 C=    0.0000
 XYZ=  -25.3650   -8.8600   -6.2720 Q=   -0.8340 A=    0.0000 R=    0.0000 C=    0.0000
 XYZ=  -25.4420   -7.9900   -5.8800 Q=    0.4170 A=    0.0000 R=    0.0000 C=    0.0000
 XYZ=  -26.1970   -8.9930   -6.7260 Q=    0.4170 A=    0.0000 R=    0.0000 C=    0.0000
 XYZ=  -19.3960  -16.6070    9.0060 Q=   -0.8340 A=    0.0000 R=    0.0000 C=    0.0000
 XYZ=  -19.8660  -15.9520    9.5210 Q=    0.4170 A=    0.0000 R=    0.0000 C=    0.0000
 XYZ=  -19.2530  -17.3330    9.6130 Q=    0.4170 A=    0.0000 R=    0.0000 C=    0.0000
 XYZ=    2.5598  -11.7212  -16.5893 Q=   -0.8340 A=    0.0000 R=    0.0000 C=    0.0000
 XYZ=    3.2630  -11.5383  -17.2474 Q=    0.4170 A=    0.0000 R=    0.0000 C=    0.0000
 XYZ=    2.7667  -11.0931  -15.8790 Q=    0.4170 A=    0.0000 R=    0.0000 C=    0.0000
 XYZ=    7.6671  -18.8448  -12.1521 Q=   -0.8340 A=    0.0000 R=    0.0000 C=    0.0000
 XYZ=    8.3326  -19.5557  -12.1360 Q=    0.4170 A=    0.0000 R=    0.0000 C=    0.0000
 XYZ=    7.3534  -18.8479  -11.2193 Q=    0.4170 A=    0.0000 R=    0.0000 C=    0.0000
 XYZ=  -11.5605   -4.6412  -19.2430 Q=   -0.8340 A=    0.0000 R=    0.0000 C=    0.0000
 XYZ=  -12.0415   -5.3478  -18.8123 Q=    0.4170 A=    0.0000 R=    0.0000 C=    0.0000
 XYZ=  -12.1276   -3.8753  -19.1533 Q=    0.4170 A=    0.0000 R=    0.0000 C=    0.0000
 XYZ=  -15.9736   -7.1390  -16.9175 Q=   -0.8340 A=    0.0000 R=    0.0000 C=    0.0000
 XYZ=  -16.6102   -6.4658  -17.2076 Q=    0.4170 A=    0.0000 R=    0.0000 C=    0.0000
 XYZ=  -15.8983   -6.9408  -15.9581 Q=    0.4170 A=    0.0000 R=    0.0000 C=    0.0000
 XYZ=    1.3090    6.4170  -15.4410 Q=   -0.8340 A=    0.0000 R=    0.0000 C=    0.0000
 XYZ=    2.2140    6.1390  -15.5840 Q=    0.4170 A=    0.0000 R=    0.0000 C=    0.0000
 XYZ=    0.9860    6.6390  -16.3150 Q=    0.4170 A=    0.0000 R=    0.0000 C=    0.0000
 XYZ=  -10.3324    3.4868    2.4877 Q=   -0.8340 A=    0.0000 R=    0.0000 C=    0.0000
 XYZ=   -9.4146    3.6502    2.7049 Q=    0.4170 A=    0.0000 R=    0.0000 C=    0.0000
 XYZ=  -10.5702    2.7214    3.0111 Q=    0.4170 A=    0.0000 R=    0.0000 C=    0.0000
 XYZ=  -15.4610  -21.2570    4.8910 Q=   -0.8340 A=    0.0000 R=    0.0000 C=    0.0000
 XYZ=  -15.3080  -20.3370    5.1070 Q=    0.4170 A=    0.0000 R=    0.0000 C=    0.0000
 XYZ=  -15.5640  -21.6890    5.7390 Q=    0.4170 A=    0.0000 R=    0.0000 C=    0.0000
 XYZ=   -5.6603    1.0297   -3.5173 Q=   -0.8340 A=    0.0000 R=    0.0000 C=    0.0000
 XYZ=   -4.7591    1.2561   -3.8151 Q=    0.4170 A=    0.0000 R=    0.0000 C=    0.0000
 XYZ=   -5.4368    0.6492   -2.6442 Q=    0.4170 A=    0.0000 R=    0.0000 C=    0.0000
 XYZ=   -0.7239  -12.3103    9.8992 Q=   -0.8340 A=    0.0000 R=    0.0000 C=    0.0000
 XYZ=   -0.9480  -12.6602   10.7615 Q=    0.4170 A=    0.0000 R=    0.0000 C=    0.0000
 XYZ=   -1.4140  -11.6740    9.7116 Q=    0.4170 A=    0.0000 R=    0.0000 C=    0.0000
 XYZ=  -15.9815   -8.4040    4.2797 Q=   -0.8340 A=    0.0000 R=    0.0000 C=    0.0000
 XYZ=  -16.6196   -8.0613    3.6170 Q=    0.4170 A=    0.0000 R=    0.0000 C=    0.0000
 XYZ=  -15.8690   -7.6138    4.8622 Q=    0.4170 A=    0.0000 R=    0.0000 C=    0.0000
 XYZ=    0.8579   -2.7705   -2.9465 Q=   -0.8340 A=    0.0000 R=    0.0000 C=    0.0000
 XYZ=    0.6776   -3.0461   -2.0230 Q=    0.4170 A=    0.0000 R=    0.0000 C=    0.0000
 XYZ=    0.5411   -3.5434   -3.4343 Q=    0.4170 A=    0.0000 R=    0.0000 C=    0.0000
 XYZ=   -8.7509   -9.4866   -5.4470 Q=   -0.8340 A=    0.0000 R=    0.0000 C=    0.0000
 XYZ=   -8.9100  -10.3696   -5.0580 Q=    0.4170 A=    0.0000 R=    0.0000 C=    0.0000
 XYZ=   -9.4289   -8.9630   -4.9648 Q=    0.4170 A=    0.0000 R=    0.0000 C=    0.0000
 XYZ=    2.8684  -11.8606    2.4755 Q=   -0.8340 A=    0.0000 R=    0.0000 C=    0.0000
 XYZ=    3.1653  -10.9965    2.8383 Q=    0.4170 A=    0.0000 R=    0.0000 C=    0.0000
 XYZ=    3.7366  -12.3264    2.4284 Q=    0.4170 A=    0.0000 R=    0.0000 C=    0.0000
 XYZ=  -15.6911   -5.0985   -2.2422 Q=   -0.8340 A=    0.0000 R=    0.0000 C=    0.0000
 XYZ=  -15.6557   -5.1499   -3.2233 Q=    0.4170 A=    0.0000 R=    0.0000 C=    0.0000
 XYZ=  -15.4447   -4.1615   -2.1209 Q=    0.4170 A=    0.0000 R=    0.0000 C=    0.0000
 XYZ=   -9.8026   -6.1037    4.4685 Q=   -0.8340 A=    0.0000 R=    0.0000 C=    0.0000
 XYZ=   -9.5687   -6.4445    5.3589 Q=    0.4170 A=    0.0000 R=    0.0000 C=    0.0000
 XYZ=   -9.9613   -5.1556    4.6760 Q=    0.4170 A=    0.0000 R=    0.0000 C=    0.0000
 XYZ=   -5.5478   -3.8376    5.9730 Q=   -0.8340 A=    0.0000 R=    0.0000 C=    0.0000
 XYZ=   -5.4433   -4.2927    5.1101 Q=    0.4170 A=    0.0000 R=    0.0000 C=    0.0000
 XYZ=   -6.3352   -3.2967    5.7727 Q=    0.4170 A=    0.0000 R=    0.0000 C=    0.0000
 XYZ=  -17.4910  -15.4660   12.6730 Q=   -0.8340 A=    0.0000 R=    0.0000 C=    0.0000
 XYZ=  -16.7190  -15.7240   12.1700 Q=    0.4170 A=    0.0000 R=    0.0000 C=    0.0000
 XYZ=  -17.5990  -14.5340   12.4870 Q=    0.4170 A=    0.0000 R=    0.0000 C=    0.0000
 XYZ=   -8.6000    0.1760   10.7290 Q=   -0.8340 A=    0.0000 R=    0.0000 C=    0.0000
 XYZ=   -8.4150   -0.6320   11.2070 Q=    0.4170 A=    0.0000 R=    0.0000 C=    0.0000
 XYZ=   -9.5520    0.2650   10.7670 Q=    0.4170 A=    0.0000 R=    0.0000 C=    0.0000
 XYZ=    6.0930   -3.7030    5.7490 Q=   -0.8340 A=    0.0000 R=    0.0000 C=    0.0000
 XYZ=    5.1680   -3.9240    5.8550 Q=    0.4170 A=    0.0000 R=    0.0000 C=    0.0000
 XYZ=    6.1690   -3.4210    4.8370 Q=    0.4170 A=    0.0000 R=    0.0000 C=    0.0000
 XYZ=  -17.5930    0.9160    2.9500 Q=   -0.8340 A=    0.0000 R=    0.0000 C=    0.0000
 XYZ=  -18.2470    0.3290    2.5710 Q=    0.4170 A=    0.0000 R=    0.0000 C=    0.0000
 XYZ=  -16.7980    0.7490    2.4430 Q=    0.4170 A=    0.0000 R=    0.0000 C=    0.0000
 XYZ=  -19.5670   -0.6120    1.9540 Q=   -0.8340 A=    0.0000 R=    0.0000 C=    0.0000
 XYZ=  -20.3530   -0.2250    2.3390 Q=    0.4170 A=    0.0000 R=    0.0000 C=    0.0000
 XYZ=  -19.6400   -1.5470    2.1450 Q=    0.4170 A=    0.0000 R=    0.0000 C=    0.0000
 XYZ=    1.4040  -21.4300    9.6810 Q=   -0.8340 A=    0.0000 R=    0.0000 C=    0.0000
 XYZ=    0.6470  -21.9580    9.9350 Q=    0.4170 A=    0.0000 R=    0.0000 C=    0.0000
 XYZ=    1.0260  -20.6310    9.3130 Q=    0.4170 A=    0.0000 R=    0.0000 C=    0.0000
 XYZ=   -2.0240  -26.0070    5.4800 Q=   -0.8340 A=    0.0000 R=    0.0000 C=    0.0000
 XYZ=   -1.2350  -25.4790    5.6040 Q=    0.4170 A=    0.0000 R=    0.0000 C=    0.0000
 XYZ=   -2.5400  -25.5200    4.8380 Q=    0.4170 A=    0.0000 R=    0.0000 C=    0.0000
 XYZ=  -10.0860  -23.8170    7.2300 Q=   -0.8340 A=    0.0000 R=    0.0000 C=    0.0000
 XYZ=  -10.7560  -23.9360    6.5570 Q=    0.4170 A=    0.0000 R=    0.0000 C=    0.0000
 XYZ=   -9.5910  -23.0490    6.9440 Q=    0.4170 A=    0.0000 R=    0.0000 C=    0.0000
 XYZ=   -3.3370   -2.0370   13.9800 Q=   -0.8340 A=    0.0000 R=    0.0000 C=    0.0000
 XYZ=   -3.3660   -2.9850   14.1100 Q=    0.4170 A=    0.0000 R=    0.0000 C=    0.0000
 XYZ=   -4.1360   -1.8370   13.4910 Q=    0.4170 A=    0.0000 R=    0.0000 C=    0.0000
 XYZ=  -21.0546   -8.0369   -3.2983 Q=   -0.8340 A=    0.0000 R=    0.0000 C=    0.0000
 XYZ=  -20.5443   -8.7763   -3.6675 Q=    0.4170 A=    0.0000 R=    0.0000 C=    0.0000
 XYZ=  -21.9140   -8.4629   -3.1164 Q=    0.4170 A=    0.0000 R=    0.0000 C=    0.0000
 XYZ=   -4.1480    2.7410  -18.7640 Q=   -0.8340 A=    0.0000 R=    0.0000 C=    0.0000
 XYZ=   -3.7730    1.9060  -19.0450 Q=    0.4170 A=    0.0000 R=    0.0000 C=    0.0000
 XYZ=   -5.0790    2.6680  -18.9720 Q=    0.4170 A=    0.0000 R=    0.0000 C=    0.0000
 XYZ=    3.9840  -29.0590   -1.9990 Q=   -0.8340 A=    0.0000 R=    0.0000 C=    0.0000
 XYZ=    4.2030  -29.2690   -1.0910 Q=    0.4170 A=    0.0000 R=    0.0000 C=    0.0000
 XYZ=    3.1010  -28.6910   -1.9530 Q=    0.4170 A=    0.0000 R=    0.0000 C=    0.0000
 XYZ=   -7.3876   -9.2146   -1.3496 Q=   -0.8340 A=    0.0000 R=    0.0000 C=    0.0000
 XYZ=   -6.8619   -8.6969   -2.0005 Q=    0.4170 A=    0.0000 R=    0.0000 C=    0.0000
 XYZ=   -7.2466  -10.1278   -1.6760 Q=    0.4170 A=    0.0000 R=    0.0000 C=    0.0000
 XYZ=  -20.2620  -12.1820   10.5730 Q=   -0.8340 A=    0.0000 R=    0.0000 C=    0.0000
 XYZ=  -19.6420  -11.4660   10.4320 Q=    0.4170 A=    0.0000 R=    0.0000 C=    0.0000
 XYZ=  -21.0360  -11.9310   10.0690 Q=    0.4170 A=    0.0000 R=    0.0000 C=    0.0000
 XYZ=    0.6780  -10.3710   15.2920 Q=   -0.8340 A=    0.0000 R=    0.0000 C=    0.0000
 XYZ=    1.1940   -9.7400   14.7890 Q=    0.4170 A=    0.0000 R=    0.0000 C=    0.0000
 XYZ=   -0.0710  -10.5700   14.7300 Q=    0.4170 A=    0.0000 R=    0.0000 C=    0.0000
 XYZ=   -2.6820    7.1950  -14.2660 Q=   -0.8340 A=    0.0000 R=    0.0000 C=    0.0000
 XYZ=   -2.3240    7.6690  -13.5150 Q=    0.4170 A=    0.0000 R=    0.0000 C=    0.0000
 XYZ=   -2.6120    7.8110  -14.9950 Q=    0.4170 A=    0.0000 R=    0.0000 C=    0.0000
 XYZ=   -2.5120    5.6755    0.4693 Q=   -0.8340 A=    0.0000 R=    0.0000 C=    0.0000
 XYZ=   -3.2306    5.8909    1.0638 Q=    0.4170 A=    0.0000 R=    0.0000 C=    0.0000
 XYZ=   -2.6068    6.2933   -0.2556 Q=    0.4170 A=    0.0000 R=    0.0000 C=    0.0000
 XYZ=  -21.0490    4.3520   -5.4650 Q=   -0.8340 A=    0.0000 R=    0.0000 C=    0.0000
 XYZ=  -21.4380    4.5330   -4.6090 Q=    0.4170 A=    0.0000 R=    0.0000 C=    0.0000
 XYZ=  -21.2240    3.4240   -5.6170 Q=    0.4170 A=    0.0000 R=    0.0000 C=    0.0000
 XYZ=    4.6680   -3.0370  -21.6000 Q=   -0.8340 A=    0.0000 R=    0.0000 C=    0.0000
 XYZ=    4.7620   -3.9880  -21.6580 Q=    0.4170 A=    0.0000 R=    0.0000 C=    0.0000
 XYZ=    4.9800   -2.8180  -20.7220 Q=    0.4170 A=    0.0000 R=    0.0000 C=    0.0000
 XYZ=  -13.0352   -4.6776  -10.6395 Q=   -0.8340 A=    0.0000 R=    0.0000 C=    0.0000
 XYZ=  -13.8662   -4.5115  -10.1697 Q=    0.4170 A=    0.0000 R=    0.0000 C=    0.0000
 XYZ=  -13.3908   -4.8129  -11.5413 Q=    0.4170 A=    0.0000 R=    0.0000 C=    0.0000
 XYZ=  -23.3730  -19.8920   -9.9050 Q=   -0.8340 A=    0.0000 R=    0.0000 C=    0.0000
 XYZ=  -22.5640  -20.4030   -9.8870 Q=    0.4170 A=    0.0000 R=    0.0000 C=    0.0000
 XYZ=  -23.1410  -19.0600   -9.4920 Q=    0.4170 A=    0.0000 R=    0.0000 C=    0.0000
 XYZ=    0.3951   -9.3980  -14.7678 Q=   -0.8340 A=    0.0000 R=    0.0000 C=    0.0000
 XYZ=    0.3888   -8.4802  -14.4263 Q=    0.4170 A=    0.0000 R=    0.0000 C=    0.0000
 XYZ=    1.3295   -9.6448  -14.6029 Q=    0.4170 A=    0.0000 R=    0.0000 C=    0.0000
 XYZ=  -11.2671  -10.5325    0.2774 Q=   -0.8340 A=    0.0000 R=    0.0000 C=    0.0000
 XYZ=  -11.1055  -10.3326   -0.6696 Q=    0.4170 A=    0.0000 R=    0.0000 C=    0.0000
 XYZ=  -11.2668   -9.6214    0.6416 Q=    0.4170 A=    0.0000 R=    0.0000 C=    0.0000
 XYZ=   -8.1880  -28.0300    0.0020 Q=   -0.8340 A=    0.0000 R=    0.0000 C=    0.0000
 XYZ=   -8.2620  -27.0780    0.0610 Q=    0.4170 A=    0.0000 R=    0.0000 C=    0.0000
 XYZ=   -8.6770  -28.3560    0.7570 Q=    0.4170 A=    0.0000 R=    0.0000 C=    0.0000
 XYZ=   -8.3120  -29.6280  -12.9200 Q=   -0.8340 A=    0.0000 R=    0.0000 C=    0.0000
 XYZ=   -8.1490  -30.3970  -13.4670 Q=    0.4170 A=    0.0000 R=    0.0000 C=    0.0000
 XYZ=   -8.4190  -28.9090  -13.5430 Q=    0.4170 A=    0.0000 R=    0.0000 C=    0.0000
 XYZ=  -12.9180    1.6730    7.8890 Q=   -0.8340 A=    0.0000 R=    0.0000 C=    0.0000
 XYZ=  -13.7500    1.9050    8.3020 Q=    0.4170 A=    0.0000 R=    0.0000 C=    0.0000
 XYZ=  -12.9800    2.0320    7.0040 Q=    0.4170 A=    0.0000 R=    0.0000 C=    0.0000
 XYZ=  -23.0290  -13.8960    5.3640 Q=   -0.8340 A=    0.0000 R=    0.0000 C=    0.0000
 XYZ=  -23.7770  -13.9570    4.7700 Q=    0.4170 A=    0.0000 R=    0.0000 C=    0.0000
 XYZ=  -22.8850  -14.7940    5.6620 Q=    0.4170 A=    0.0000 R=    0.0000 C=    0.0000
 XYZ=  -24.3620  -20.6050   -0.0660 Q=   -0.8340 A=    0.0000 R=    0.0000 C=    0.0000
 XYZ=  -23.8680  -20.3730    0.7200 Q=    0.4170 A=    0.0000 R=    0.0000 C=    0.0000
 XYZ=  -24.4960  -19.7730   -0.5190 Q=    0.4170 A=    0.0000 R=    0.0000 C=    0.0000
 XYZ=    7.7150  -21.3949   -5.9597 Q=   -0.8340 A=    0.0000 R=    0.0000 C=    0.0000
 XYZ=    8.0864  -21.3032   -5.0582 Q=    0.4170 A=    0.0000 R=    0.0000 C=    0.0000
 XYZ=    6.7820  -21.1736   -5.7992 Q=    0.4170 A=    0.0000 R=    0.0000 C=    0.0000
 XYZ=  -13.9746    1.3079  -12.6079 Q=   -0.8340 A=    0.0000 R=    0.0000 C=    0.0000
 XYZ=  -14.3691    1.6311  -13.4179 Q=    0.4170 A=    0.0000 R=    0.0000 C=    0.0000
 XYZ=  -13.0315    1.3761  -12.7564 Q=    0.4170 A=    0.0000 R=    0.0000 C=    0.0000
 XYZ=  -14.8580    2.0090  -20.8300 Q=   -0.8340 A=    0.0000 R=    0.0000 C=    0.0000
 XYZ=  -14.0230    1.7280  -21.2040 Q=    0.4170 A=    0.0000 R=    0.0000 C=    0.0000
 XYZ=  -14.6720    2.1420  -19.9010 Q=    0.4170 A=    0.0000 R=    0.0000 C=    0.0000
 XYZ=  -10.0022  -18.5867   -0.3789 Q=   -0.8340 A=    0.0000 R=    0.0000 C=    0.0000
 XYZ=  -10.4057  -18.0268    0.3213 Q=    0.4170 A=    0.0000 R=    0.0000 C=    0.0000
 XYZ=  -10.8240  -18.8349   -0.8648 Q=    0.4170 A=    0.0000 R=    0.0000 C=    0.0000
 XYZ=  -14.9367    0.3759   -5.6879 Q=   -0.8340 A=    0.0000 R=    0.0000 C=    0.0000
 XYZ=  -15.7875    0.7362   -6.0313 Q=    0.4170 A=    0.0000 R=    0.0000 C=    0.0000
 XYZ=  -14.3833    0.4067   -6.4828 Q=    0.4170 A=    0.0000 R=    0.0000 C=    0.0000
 XYZ=  -19.9664  -11.8112   -9.2576 Q=   -0.8340 A=    0.0000 R=    0.0000 C=    0.0000
 XYZ=  -19.4521  -12.3274   -8.6042 Q=    0.4170 A=    0.0000 R=    0.0000 C=    0.0000
 XYZ=  -20.2030  -11.0405   -8.7020 Q=    0.4170 A=    0.0000 R=    0.0000 C=    0.0000
 XYZ=   -2.2690    4.4100  -14.8550 Q=   -0.8340 A=    0.0000 R=    0.0000 C=    0.0000
 XYZ=   -2.4540    4.1560  -15.7600 Q=    0.4170 A=    0.0000 R=    0.0000 C=    0.0000
 XYZ=   -2.4500    5.3500  -14.8280 Q=    0.4170 A=    0.0000 R=    0.0000 C=    0.0000
 XYZ=   -2.7490  -26.2750    2.2870 Q=   -0.8340 A=    0.0000 R=    0.0000 C=    0.0000
 XYZ=   -3.4630  -25.7260    2.6130 Q=    0.4170 A=    0.0000 R=    0.0000 C=    0.0000
 XYZ=   -3.0180  -27.1690    2.4990 Q=    0.4170 A=    0.0000 R=    0.0000 C=    0.0000
 XYZ=   -4.3000  -28.3430    5.8880 Q=   -0.8340 A=    0.0000 R=    0.0000 C=    0.0000
 XYZ=   -5.0030  -27.8190    6.2710 Q=    0.4170 A=    0.0000 R=    0.0000 C=    0.0000
 XYZ=   -3.4970  -27.9740    6.2570 Q=    0.4170 A=    0.0000 R=    0.0000 C=    0.0000
 XYZ=    5.5100   -8.5450   10.7390 Q=   -0.8340 A=    0.0000 R=    0.0000 C=    0.0000
 XYZ=    6.3520   -8.1410   10.9490 Q=    0.4170 A=    0.0000 R=    0.0000 C=    0.0000
 XYZ=    4.8700   -8.0370   11.2380 Q=    0.4170 A=    0.0000 R=    0.0000 C=    0.0000
 XYZ=  -11.9157  -24.7001  -11.1482 Q=   -0.8340 A=    0.0000 R=    0.0000 C=    0.0000
 XYZ=  -10.9788  -24.5698  -11.3943 Q=    0.4170 A=    0.0000 R=    0.0000 C=    0.0000
 XYZ=  -12.3982  -24.3979  -11.9436 Q=    0.4170 A=    0.0000 R=    0.0000 C=    0.0000
 XYZ=    9.6550   -6.9970    2.5790 Q=   -0.8340 A=    0.0000 R=    0.0000 C=    0.0000
 XYZ=    9.8380   -7.5340    1.8080 Q=    0.4170 A=    0.0000 R=    0.0000 C=    0.0000
 XYZ=    9.7230   -7.6040    3.3160 Q=    0.4170 A=    0.0000 R=    0.0000 C=    0.0000
 XYZ=    3.7140  -13.5430   10.9360 Q=   -0.8340 A=    0.0000 R=    0.0000 C=    0.0000
 XYZ=    3.6540  -12.7150   10.4600 Q=    0.4170 A=    0.0000 R=    0.0000 C=    0.0000
 XYZ=    4.0570  -14.1650   10.2940 Q=    0.4170 A=    0.0000 R=    0.0000 C=    0.0000
 XYZ=  -23.0860  -12.2940  -18.5540 Q=   -0.8340 A=    0.0000 R=    0.0000 C=    0.0000
 XYZ=  -22.4140  -12.9750  -18.5280 Q=    0.4170 A=    0.0000 R=    0.0000 C=    0.0000
 XYZ=  -23.0630  -11.9010  -17.6820 Q=    0.4170 A=    0.0000 R=    0.0000 C=    0.0000
 XYZ=  -24.9650  -14.7890   -9.7490 Q=   -0.8340 A=    0.0000 R=    0.0000 C=    0.0000
 XYZ=  -25.8500  -14.5790  -10.0470 Q=    0.4170 A=    0.0000 R=    0.0000 C=    0.0000
 XYZ=  -24.3950  -14.4740  -10.4500 Q=    0.4170 A=    0.0000 R=    0.0000 C=    0.0000
 XYZ=  -19.5855   -3.4250   -0.0459 Q=   -0.8340 A=    0.0000 R=    0.0000 C=    0.0000
 XYZ=  -20.3255   -3.2769   -0.6721 Q=    0.4170 A=    0.0000 R=    0.0000 C=    0.0000
 XYZ=  -19.1739   -4.2113   -0.4591 Q=    0.4170 A=    0.0000 R=    0.0000 C=    0.0000
 XYZ=  -19.6274  -10.1416   -5.3221 Q=   -0.8340 A=    0.0000 R=    0.0000 C=    0.0000
 XYZ=  -18.7497  -10.2493   -5.6887 Q=    0.4170 A=    0.0000 R=    0.0000 C=    0.0000
 XYZ=  -20.1670   -9.8741   -6.0660 Q=    0.4170 A=    0.0000 R=    0.0000 C=    0.0000
 XYZ=   -4.8010  -20.5490  -23.9420 Q=   -0.8340 A=    0.0000 R=    0.0000 C=    0.0000
 XYZ=   -5.5920  -20.6450  -23.4110 Q=    0.4170 A=    0.0000 R=    0.0000 C=    0.0000
 XYZ=   -4.9420  -21.1320  -24.6880 Q=    0.4170 A=    0.0000 R=    0.0000 C=    0.0000
 XYZ=  -12.6253  -18.7023  -15.5515 Q=   -0.8340 A=    0.0000 R=    0.0000 C=    0.0000
 XYZ=  -11.6823  -18.4932  -15.3841 Q=    0.4170 A=    0.0000 R=    0.0000 C=    0.0000
 XYZ=  -12.5581  -19.6812  -15.5520 Q=    0.4170 A=    0.0000 R=    0.0000 C=    0.0000
 XYZ=   -5.5662   -2.3123   -0.7536 Q=   -0.8340 A=    0.0000 R=    0.0000 C=    0.0000
 XYZ=   -5.2885   -3.0041   -0.1104 Q=    0.4170 A=    0.0000 R=    0.0000 C=    0.0000
 XYZ=   -6.4374   -2.6579   -1.0346 Q=    0.4170 A=    0.0000 R=    0.0000 C=    0.0000
 XYZ=    6.8896  -11.0634   -5.6313 Q=   -0.8340 A=    0.0000 R=    0.0000 C=    0.0000
 XYZ=    7.0369  -11.1256   -4.6674 Q=    0.4170 A=    0.0000 R=    0.0000 C=    0.0000
 XYZ=    7.5237  -10.3635   -5.8858 Q=    0.4170 A=    0.0000 R=    0.0000 C=    0.0000
 XYZ=  -17.6178   -7.9283    2.1313 Q=   -0.8340 A=    0.0000 R=    0.0000 C=    0.0000
 XYZ=  -17.6249   -8.8686    1.8479 Q=    0.4170 A=    0.0000 R=    0.0000 C=    0.0000
 XYZ=  -17.2136   -7.4814    1.3702 Q=    0.4170 A=    0.0000 R=    0.0000 C=    0.0000
 XYZ=  -26.0000  -12.6050   -3.2670 Q=   -0.8340 A=    0.0000 R=    0.0000 C=    0.0000
 XYZ=  -26.3100  -13.4720   -3.5300 Q=    0.4170 A=    0.0000 R=    0.0000 C=    0.0000
 XYZ=  -25.8720  -12.1360   -4.0910 Q=    0.4170 A=    0.0000 R=    0.0000 C=    0.0000
 XYZ=  -20.3580  -14.5385   -5.7909 Q=   -0.8340 A=    0.0000 R=    0.0000 C=    0.0000
 XYZ=  -20.0749  -15.4266   -5.5730 Q=    0.4170 A=    0.0000 R=    0.0000 C=    0.0000
 XYZ=  -20.8162  -14.6309   -6.6262 Q=    0.4170 A=    0.0000 R=    0.0000 C=    0.0000
 XYZ=  -23.3750   -8.5470   -0.0180 Q=   -0.8340 A=    0.0000 R=    0.0000 C=    0.0000
 XYZ=  -23.5100   -8.7290   -0.9480 Q=    0.4170 A=    0.0000 R=    0.0000 C=    0.0000
 XYZ=  -23.4410   -9.4020    0.4070 Q=    0.4170 A=    0.0000 R=    0.0000 C=    0.0000
 XYZ=  -23.7090  -13.2800   -7.9040 Q=   -0.8340 A=    0.0000 R=    0.0000 C=    0.0000
 XYZ=  -24.0080  -13.4850   -7.0180 Q=    0.4170 A=    0.0000 R=    0.0000 C=    0.0000
 XYZ=  -24.3560  -13.6910   -8.4770 Q=    0.4170 A=    0.0000 R=    0.0000 C=    0.0000
 XYZ=  -23.6590   -9.0910   -2.6920 Q=   -0.8340 A=    0.0000 R=    0.0000 C=    0.0000
 XYZ=  -23.3180   -9.7410   -3.3050 Q=    0.4170 A=    0.0000 R=    0.0000 C=    0.0000
 XYZ=  -24.3510   -8.6420   -3.1770 Q=    0.4170 A=    0.0000 R=    0.0000 C=    0.0000
 XYZ=    4.9150  -14.0280    8.2560 Q=   -0.8340 A=    0.0000 R=    0.0000 C=    0.0000
 XYZ=    4.1670  -13.5140    7.9510 Q=    0.4170 A=    0.0000 R=    0.0000 C=    0.0000
 XYZ=    5.6700  -13.4540    8.1260 Q=    0.4170 A=    0.0000 R=    0.0000 C=    0.0000
 XYZ=  -12.5413  -23.0925   -9.0633 Q=   -0.8340 A=    0.0000 R=    0.0000 C=    0.0000
 XYZ=  -12.6622  -22.2180   -9.4862 Q=    0.4170 A=    0.0000 R=    0.0000 C=    0.0000
 XYZ=  -12.3564  -23.6778   -9.8329 Q=    0.4170 A=    0.0000 R=    0.0000 C=    0.0000
 XYZ=  -14.4970   -2.2930    9.1850 Q=   -0.8340 A=    0.0000 R=    0.0000 C=    0.0000
 XYZ=  -14.5760   -1.4150    9.5570 Q=    0.4170 A=    0.0000 R=    0.0000 C=    0.0000
 XYZ=  -15.2040   -2.3460    8.5420 Q=    0.4170 A=    0.0000 R=    0.0000 C=    0.0000
 XYZ=  -11.3290  -22.8700   10.1860 Q=   -0.8340 A=    0.0000 R=    0.0000 C=    0.0000
 XYZ=  -10.9070  -22.2050   10.7290 Q=    0.4170 A=    0.0000 R=    0.0000 C=    0.0000
 XYZ=  -10.6260  -23.4800    9.9620 Q=    0.4170 A=    0.0000 R=    0.0000 C=    0.0000
 XYZ=  -15.6523  -14.3173  -19.8442 Q=   -0.8340 A=    0.0000 R=    0.0000 C=    0.0000
 XYZ=  -16.1459  -13.6694  -20.3760 Q=    0.4170 A=    0.0000 R=    0.0000 C=    0.0000
 XYZ=  -15.3147  -13.7235  -19.1284 Q=    0.4170 A=    0.0000 R=    0.0000 C=    0.0000
 XYZ=   -2.0060  -23.6130  -17.4660 Q=   -0.8340 A=    0.0000 R=    0.0000 C=    0.0000
 XYZ=   -2.9610  -23.5570  -17.4660 Q=    0.4170 A=    0.0000 R=    0.0000 C=    0.0000
 XYZ=   -1.7510  -23.3820  -16.5730 Q=    0.4170 A=    0.0000 R=    0.0000 C=    0.0000
 XYZ=  -14.9600   -0.3710    5.3140 Q=   -0.8340 A=    0.0000 R=    0.0000 C=    0.0000
 XYZ=  -15.1870   -0.4510    4.3870 Q=    0.4170 A=    0.0000 R=    0.0000 C=    0.0000
 XYZ=  -15.4720    0.3750    5.6230 Q=    0.4170 A=    0.0000 R=    0.0000 C=    0.0000
 XYZ=  -21.4650   -3.4030   -2.2850 Q=   -0.8340 A=    0.0000 R=    0.0000 C=    0.0000
 XYZ=  -22.2930   -3.7540   -1.9570 Q=    0.4170 A=    0.0000 R=    0.0000 C=    0.0000
 XYZ=  -21.5200   -3.5080   -3.2350 Q=    0.4170 A=    0.0000 R=    0.0000 C=    0.0000
 XYZ=  -12.5662  -12.1904   -2.5920 Q=   -0.8340 A=    0.0000 R=    0.0000 C=    0.0000
 XYZ=  -13.2562  -11.5496   -2.3154 Q=    0.4170 A=    0.0000 R=    0.0000 C=    0.0000
 XYZ=  -13.0651  -13.0302   -2.5941 Q=    0.4170 A=    0.0000 R=    0.0000 C=    0.0000
 XYZ=   -6.1020  -18.1060  -23.3830 Q=   -0.8340 A=    0.0000 R=    0.0000 C=    0.0000
 XYZ=   -5.2600  -18.5080  -23.5950 Q=    0.4170 A=    0.0000 R=    0.0000 C=    0.0000
 XYZ=   -5.8740  -17.2630  -22.9920 Q=    0.4170 A=    0.0000 R=    0.0000 C=    0.0000
 XYZ=  -11.0856   -5.8849   11.0040 Q=   -0.8340 A=    0.0000 R=    0.0000 C=    0.0000
 XYZ=  -10.5184   -6.5540   11.3870 Q=    0.4170 A=    0.0000 R=    0.0000 C=    0.0000
 XYZ=  -10.5477   -5.4725   10.3281 Q=    0.4170 A=    0.0000 R=    0.0000 C=    0.0000
 XYZ=    5.3681    2.0342   -3.4369 Q=   -0.8340 A=    0.0000 R=    0.0000 C=    0.0000
 XYZ=    5.0050    2.0719   -4.3454 Q=    0.4170 A=    0.0000 R=    0.0000 C=    0.0000
 XYZ=    4.6017    2.3708   -2.9252 Q=    0.4170 A=    0.0000 R=    0.0000 C=    0.0000
 XYZ=    1.4509   -8.5306    2.4460 Q=   -0.8340 A=    0.0000 R=    0.0000 C=    0.0000
 XYZ=    2.3916   -8.3642    2.2388 Q=    0.4170 A=    0.0000 R=    0.0000 C=    0.0000
 XYZ=    1.1969   -7.6693    2.8353 Q=    0.4170 A=    0.0000 R=    0.0000 C=    0.0000
 XYZ=  -10.0692  -25.5347   -1.5009 Q=   -0.8340 A=    0.0000 R=    0.0000 C=    0.0000
 XYZ=   -9.7693  -24.8189   -2.0722 Q=    0.4170 A=    0.0000 R=    0.0000 C=    0.0000
 XYZ=   -9.5646  -25.3732   -0.6797 Q=    0.4170 A=    0.0000 R=    0.0000 C=    0.0000
 XYZ=  -16.6126  -17.9745  -14.3149 Q=   -0.8340 A=    0.0000 R=    0.0000 C=    0.0000
 XYZ=  -17.2479  -17.2326  -14.3672 Q=    0.4170 A=    0.0000 R=    0.0000 C=    0.0000
 XYZ=  -15.7823  -17.5091  -14.5594 Q=    0.4170 A=    0.0000 R=    0.0000 C=    0.0000
 XYZ=   -7.0216  -25.4212   -9.9080 Q=   -0.8340 A=    0.0000 R=    0.0000 C=    0.0000
 XYZ=   -7.0490  -26.3727  -10.0089 Q=    0.4170 A=    0.0000 R=    0.0000 C=    0.0000
 XYZ=   -6.9250  -25.2825   -8.9659 Q=    0.4170 A=    0.0000 R=    0.0000 C=    0.0000
 XYZ=   -9.6820  -14.0180  -25.3720 Q=   -0.8340 A=    0.0000 R=    0.0000 C=    0.0000
 XYZ=  -10.2470  -14.7900  -25.4150 Q=    0.4170 A=    0.0000 R=    0.0000 C=    0.0000
 XYZ=   -8.8010  -14.3720  -25.2510 Q=    0.4170 A=    0.0000 R=    0.0000 C=    0.0000
 XYZ=   -7.6120  -11.3210  -25.8530 Q=   -0.8340 A=    0.0000 R=    0.0000 C=    0.0000
 XYZ=   -8.4710  -11.7420  -25.9060 Q=    0.4170 A=    0.0000 R=    0.0000 C=    0.0000
 XYZ=   -7.0810  -11.9260  -25.3360 Q=    0.4170 A=    0.0000 R=    0.0000 C=    0.0000
 XYZ=   -4.6617    0.2035   -1.0801 Q=   -0.8340 A=    0.0000 R=    0.0000 C=    0.0000
 XYZ=   -3.7004   -0.0004   -1.0833 Q=    0.4170 A=    0.0000 R=    0.0000 C=    0.0000
 XYZ=   -5.0242   -0.7006   -0.9469 Q=    0.4170 A=    0.0000 R=    0.0000 C=    0.0000
 XYZ=  -16.9180  -12.1650    8.7730 Q=   -0.8340 A=    0.0000 R=    0.0000 C=    0.0000
 XYZ=  -17.7100  -12.6850    8.6340 Q=    0.4170 A=    0.0000 R=    0.0000 C=    0.0000
 XYZ=  -17.1940  -11.4620    9.3610 Q=    0.4170 A=    0.0000 R=    0.0000 C=    0.0000
 XYZ=   -8.8290   -7.0648  -10.0095 Q=   -0.8340 A=    0.0000 R=    0.0000 C=    0.0000
 XYZ=   -8.9726   -7.1911   -9.0464 Q=    0.4170 A=    0.0000 R=    0.0000 C=    0.0000
 XYZ=   -9.3326   -6.2257  -10.1435 Q=    0.4170 A=    0.0000 R=    0.0000 C=    0.0000
 XYZ=   -6.1032  -13.5091    0.7623 Q=   -0.8340 A=    0.0000 R=    0.0000 C=    0.0000
 XYZ=   -6.1476  -12.5306    0.8021 Q=    0.4170 A=    0.0000 R=    0.0000 C=    0.0000
 XYZ=   -5.9349  -13.7277    1.6998 Q=    0.4170 A=    0.0000 R=    0.0000 C=    0.0000
 XYZ=    1.4160    7.8370   -6.9120 Q=   -0.8340 A=    0.0000 R=    0.0000 C=    0.0000
 XYZ=    0.6470    7.2940   -6.7360 Q=    0.4170 A=    0.0000 R=    0.0000 C=    0.0000
 XYZ=    1.3350    8.0750   -7.8360 Q=    0.4170 A=    0.0000 R=    0.0000 C=    0.0000
 XYZ=   -8.8010    3.0050   10.5290 Q=   -0.8340 A=    0.0000 R=    0.0000 C=    0.0000
 XYZ=   -9.1590    3.5780   11.2070 Q=    0.4170 A=    0.0000 R=    0.0000 C=    0.0000
 XYZ=   -8.9020    2.1220   10.8850 Q=    0.4170 A=    0.0000 R=    0.0000 C=    0.0000
 XYZ=  -13.1894  -10.4908   -7.9659 Q=   -0.8340 A=    0.0000 R=    0.0000 C=    0.0000
 XYZ=  -12.4383  -11.1159   -7.9989 Q=    0.4170 A=    0.0000 R=    0.0000 C=    0.0000
 XYZ=  -13.0014  -10.0417   -7.1156 Q=    0.4170 A=    0.0000 R=    0.0000 C=    0.0000
 XYZ=   -5.2960  -23.8142  -11.3089 Q=   -0.8340 A=    0.0000 R=    0.0000 C=    0.0000
 XYZ=   -4.6466  -23.6716  -10.6202 Q=    0.4170 A=    0.0000 R=    0.0000 C=    0.0000
 XYZ=   -5.9700  -24.3535  -10.8953 Q=    0.4170 A=    0.0000 R=    0.0000 C=    0.0000
 XYZ=  -16.4660    5.7270  -10.8430 Q=   -0.8340 A=    0.0000 R=    0.0000 C=    0.0000
 XYZ=  -15.7700    6.3740  -10.9640 Q=    0.4170 A=    0.0000 R=    0.0000 C=    0.0000
 XYZ=  -17.1790    6.2170  -10.4330 Q=    0.4170 A=    0.0000 R=    0.0000 C=    0.0000
 XYZ=   -9.7128   -9.6811    5.1520 Q=   -0.8340 A=    0.0000 R=    0.0000 C=    0.0000
 XYZ=   -9.0527   -9.6544    4.4170 Q=    0.4170 A=    0.0000 R=    0.0000 C=    0.0000
 XYZ=   -9.5164   -8.8608    5.6281 Q=    0.4170 A=    0.0000 R=    0.0000 C=    0.0000
 XYZ=  -16.3430    3.5560    4.4200 Q=   -0.8340 A=    0.0000 R=    0.0000 C=    0.0000
 XYZ=  -17.0370    2.9930    4.0760 Q=    0.4170 A=    0.0000 R=    0.0000 C=    0.0000
 XYZ=  -15.7430    2.9550    4.8600 Q=    0.4170 A=    0.0000 R=    0.0000 C=    0.0000
 XYZ=  -19.0050   -0.8190   -7.4463 Q=   -0.8340 A=    0.0000 R=    0.0000 C=    0.0000
 XYZ=  -19.0538   -1.0533   -8.3968 Q=    0.4170 A=    0.0000 R=    0.0000 C=    0.0000
 XYZ=  -19.9101   -0.5062   -7.2865 Q=    0.4170 A=    0.0000 R=    0.0000 C=    0.0000
 XYZ=   -9.2577    2.0728   -2.6714 Q=   -0.8340 A=    0.0000 R=    0.0000 C=    0.0000
 XYZ=   -9.5885    2.3213   -1.7824 Q=    0.4170 A=    0.0000 R=    0.0000 C=    0.0000
 XYZ=   -9.0401    1.1263   -2.5607 Q=    0.4170 A=    0.0000 R=    0.0000 C=    0.0000
 XYZ=   -3.9800   -0.9362    4.5504 Q=   -0.8340 A=    0.0000 R=    0.0000 C=    0.0000
 XYZ=   -4.4660   -0.8287    3.7012 Q=    0.4170 A=    0.0000 R=    0.0000 C=    0.0000
 XYZ=   -4.6553   -0.5844    5.1681 Q=    0.4170 A=    0.0000 R=    0.0000 C=    0.0000
 XYZ=    5.1535   -6.0387   -9.8939 Q=   -0.8340 A=    0.0000 R=    0.0000 C=    0.0000
 XYZ=    5.8361   -5.7056   -9.2732 Q=    0.4170 A=    0.0000 R=    0.0000 C=    0.0000
 XYZ=    5.7065   -6.2743  -10.6646 Q=    0.4170 A=    0.0000 R=    0.0000 C=    0.0000
 XYZ=  -15.9180    2.9440  -14.3890 Q=   -0.8340 A=    0.0000 R=    0.0000 C=    0.0000
 XYZ=  -15.9700    3.1670  -15.3190 Q=    0.4170 A=    0.0000 R=    0.0000 C=    0.0000
 XYZ=  -15.4660    3.6870  -13.9900 Q=    0.4170 A=    0.0000 R=    0.0000 C=    0.0000
 XYZ=   -0.5292   -7.6898   -7.4418 Q=   -0.8340 A=    0.0000 R=    0.0000 C=    0.0000
 XYZ=   -0.2824   -8.6185   -7.5975 Q=    0.4170 A=    0.0000 R=    0.0000 C=    0.0000
 XYZ=   -1.4834   -7.7779   -7.2211 Q=    0.4170 A=    0.0000 R=    0.0000 C=    0.0000
 XYZ=   -4.8578   -3.3069  -13.0690 Q=   -0.8340 A=    0.0000 R=    0.0000 C=    0.0000
 XYZ=   -5.0515   -2.9118  -12.2189 Q=    0.4170 A=    0.0000 R=    0.0000 C=    0.0000
 XYZ=   -4.0874   -3.8523  -12.9102 Q=    0.4170 A=    0.0000 R=    0.0000 C=    0.0000
 XYZ=   -4.8350  -10.8899    4.6383 Q=   -0.8340 A=    0.0000 R=    0.0000 C=    0.0000
 XYZ=   -5.4978  -11.5937    4.8182 Q=    0.4170 A=    0.0000 R=    0.0000 C=    0.0000
 XYZ=   -4.7426  -10.5081    5.5197 Q=    0.4170 A=    0.0000 R=    0.0000 C=    0.0000
 XYZ=  -14.3720    1.9050  -18.0580 Q=   -0.8340 A=    0.0000 R=    0.0000 C=    0.0000
 XYZ=  -14.7730    2.7650  -17.9340 Q=    0.4170 A=    0.0000 R=    0.0000 C=    0.0000
 XYZ=  -13.4300    2.0700  -18.0090 Q=    0.4170 A=    0.0000 R=    0.0000 C=    0.0000
 XYZ=   -2.9010    8.4070   -0.8900 Q=   -0.8340 A=    0.0000 R=    0.0000 C=    0.0000
 XYZ=   -3.8010    8.3390   -1.2080 Q=    0.4170 A=    0.0000 R=    0.0000 C=    0.0000
 XYZ=   -2.9610    8.9720   -0.1190 Q=    0.4170 A=    0.0000 R=    0.0000 C=    0.0000
 XYZ=  -11.4980  -13.1520   15.1600 Q=   -0.8340 A=    0.0000 R=    0.0000 C=    0.0000
 XYZ=  -12.3500  -12.8610   15.4850 Q=    0.4170 A=    0.0000 R=    0.0000 C=    0.0000
 XYZ=  -10.8680  -12.5680   15.5820 Q=    0.4170 A=    0.0000 R=    0.0000 C=    0.0000
 XYZ=  -17.0210   -4.2750  -22.5720 Q=   -0.8340 A=    0.0000 R=    0.0000 C=    0.0000
 XYZ=  -17.6560   -4.1250  -21.8720 Q=    0.4170 A=    0.0000 R=    0.0000 C=    0.0000
 XYZ=  -16.6110   -5.1110  -22.3490 Q=    0.4170 A=    0.0000 R=    0.0000 C=    0.0000
 XYZ=  -14.9131  -21.2375  -13.7660 Q=   -0.8340 A=    0.0000 R=    0.0000 C=    0.0000
 XYZ=  -15.6979  -20.7519  -14.0516 Q=    0.4170 A=    0.0000 R=    0.0000 C=    0.0000
 XYZ=  -14.4263  -20.5570  -13.2528 Q=    0.4170 A=    0.0000 R=    0.0000 C=    0.0000
 XYZ=  -14.3540    4.9510  -13.1070 Q=   -0.8340 A=    0.0000 R=    0.0000 C=    0.0000
 XYZ=  -13.8220    5.6990  -13.3800 Q=    0.4170 A=    0.0000 R=    0.0000 C=    0.0000
 XYZ=  -14.8190    5.2580  -12.3290 Q=    0.4170 A=    0.0000 R=    0.0000 C=    0.0000
 XYZ=   -9.2124   -8.7034  -16.3887 Q=   -0.8340 A=    0.0000 R=    0.0000 C=    0.0000
 XYZ=   -9.3844   -8.2003  -15.5699 Q=    0.4170 A=    0.0000 R=    0.0000 C=    0.0000
 XYZ=  -10.1103   -8.7060  -16.7761 Q=    0.4170 A=    0.0000 R=    0.0000 C=    0.0000
 XYZ=    2.6860  -29.2930    0.4910 Q=   -0.8340 A=    0.0000 R=    0.0000 C=    0.0000
 XYZ=    3.0290  -29.1660    1.3760 Q=    0.4170 A=    0.0000 R=    0.0000 C=    0.0000
 XYZ=    1.8170  -28.8920    0.5110 Q=    0.4170 A=    0.0000 R=    0.0000 C=    0.0000
 XYZ=    2.5350  -30.3740   -8.0190 Q=   -0.8340 A=    0.0000 R=    0.0000 C=    0.0000
 XYZ=    2.8950  -31.0310   -7.4230 Q=    0.4170 A=    0.0000 R=    0.0000 C=    0.0000
 XYZ=    3.1630  -29.6530   -7.9880 Q=    0.4170 A=    0.0000 R=    0.0000 C=    0.0000
 XYZ=  -18.7530    5.5100  -12.5600 Q=   -0.8340 A=    0.0000 R=    0.0000 C=    0.0000
 XYZ=  -18.4920    6.3110  -13.0140 Q=    0.4170 A=    0.0000 R=    0.0000 C=    0.0000
 XYZ=  -17.9290    5.1180  -12.2710 Q=    0.4170 A=    0.0000 R=    0.0000 C=    0.0000
 XYZ=    1.6989  -23.5896    2.1011 Q=   -0.8340 A=    0.0000 R=    0.0000 C=    0.0000
 XYZ=    2.1594  -22.7537    2.0272 Q=    0.4170 A=    0.0000 R=    0.0000 C=    0.0000
 XYZ=    1.2541  -23.6938    1.2599 Q=    0.4170 A=    0.0000 R=    0.0000 C=    0.0000
 XYZ=    5.4036  -14.2991    5.0497 Q=   -0.8340 A=    0.0000 R=    0.0000 C=    0.0000
 XYZ=    4.6551  -14.8498    5.3681 Q=    0.4170 A=    0.0000 R=    0.0000 C=    0.0000
 XYZ=    6.1331  -14.9541    5.0680 Q=    0.4170 A=    0.0000 R=    0.0000 C=    0.0000
 XYZ=   -5.8705   -7.5403   -3.0161 Q=   -0.8340 A=    0.0000 R=    0.0000 C=    0.0000
 XYZ=   -5.0386   -7.9931   -2.7341 Q=    0.4170 A=    0.0000 R=    0.0000 C=    0.0000
 XYZ=   -5.5853   -7.2574   -3.9094 Q=    0.4170 A=    0.0000 R=    0.0000 C=    0.0000
 XYZ=  -23.3470   -9.7980   -8.2020 Q=   -0.8340 A=    0.0000 R=    0.0000 C=    0.0000
 XYZ=  -23.9500   -9.5670   -8.9090 Q=    0.4170 A=    0.0000 R=    0.0000 C=    0.0000
 XYZ=  -23.8350   -9.6090   -7.4010 Q=    0.4170 A=    0.0000 R=    0.0000 C=    0.0000
 XYZ=   12.6710  -12.4630  -10.2800 Q=   -0.8340 A=    0.0000 R=    0.0000 C=    0.0000
 XYZ=   13.0410  -11.6900   -9.8550 Q=    0.4170 A=    0.0000 R=    0.0000 C=    0.0000
 XYZ=   13.1170  -12.5090  -11.1260 Q=    0.4170 A=    0.0000 R=    0.0000 C=    0.0000
 XYZ=    9.4900    0.5840   -8.0140 Q=   -0.8340 A=    0.0000 R=    0.0000 C=    0.0000
 XYZ=    8.7730    0.5880   -7.3790 Q=    0.4170 A=    0.0000 R=    0.0000 C=    0.0000
 XYZ=    9.5140    1.4790   -8.3540 Q=    0.4170 A=    0.0000 R=    0.0000 C=    0.0000
 XYZ=  -15.2990  -26.6870  -10.8540 Q=   -0.8340 A=    0.0000 R=    0.0000 C=    0.0000
 XYZ=  -14.6010  -26.4460  -11.4650 Q=    0.4170 A=    0.0000 R=    0.0000 C=    0.0000
 XYZ=  -15.6240  -27.5260  -11.1800 Q=    0.4170 A=    0.0000 R=    0.0000 C=    0.0000
 XYZ=   -2.5449    2.8464    0.5233 Q=   -0.8340 A=    0.0000 R=    0.0000 C=    0.0000
 XYZ=   -2.4030    3.7865    0.6343 Q=    0.4170 A=    0.0000 R=    0.0000 C=    0.0000
 XYZ=   -3.4951    2.7400    0.5691 Q=    0.4170 A=    0.0000 R=    0.0000 C=    0.0000
 XYZ=    3.4950   -9.5040  -20.3580 Q=   -0.8340 A=    0.0000 R=    0.0000 C=    0.0000
 XYZ=    3.9270  -10.1820  -19.8390 Q=    0.4170 A=    0.0000 R=    0.0000 C=    0.0000
 XYZ=    4.1470   -8.8070  -20.4320 Q=    0.4170 A=    0.0000 R=    0.0000 C=    0.0000
 XYZ=  -22.3440  -21.4660   -6.9010 Q=   -0.8340 A=    0.0000 R=    0.0000 C=    0.0000
 XYZ=  -23.1330  -20.9290   -6.8240 Q=    0.4170 A=    0.0000 R=    0.0000 C=    0.0000
 XYZ=  -22.2560  -21.6300   -7.8400 Q=    0.4170 A=    0.0000 R=    0.0000 C=    0.0000
 XYZ=  -12.6280  -15.5480   14.6410 Q=   -0.8340 A=    0.0000 R=    0.0000 C=    0.0000
 XYZ=  -12.0590  -14.8260   14.9090 Q=    0.4170 A=    0.0000 R=    0.0000 C=    0.0000
 XYZ=  -12.6440  -15.4980   13.6860 Q=    0.4170 A=    0.0000 R=    0.0000 C=    0.0000
 XYZ=    5.9664    0.2517   -9.4050 Q=   -0.8340 A=    0.0000 R=    0.0000 C=    0.0000
 XYZ=    5.8947    1.1829   -9.1258 Q=    0.4170 A=    0.0000 R=    0.0000 C=    0.0000
 XYZ=    5.0503   -0.0519   -9.1977 Q=    0.4170 A=    0.0000 R=    0.0000 C=    0.0000
 XYZ=   -9.4206   -0.8300  -14.6193 Q=   -0.8340 A=    0.0000 R=    0.0000 C=    0.0000
 XYZ=   -8.9667   -1.4681  -15.2102 Q=    0.4170 A=    0.0000 R=    0.0000 C=    0.0000
 XYZ=  -10.1894   -1.3780  -14.3323 Q=    0.4170 A=    0.0000 R=    0.0000 C=    0.0000
 XYZ=    7.8410  -16.9350    7.6070 Q=   -0.8340 A=    0.0000 R=    0.0000 C=    0.0000
 XYZ=    6.9910  -17.0640    8.0260 Q=    0.4170 A=    0.0000 R=    0.0000 C=    0.0000
 XYZ=    7.6890  -17.1450    6.6850 Q=    0.4170 A=    0.0000 R=    0.0000 C=    0.0000
 XYZ=  -14.9229   -2.3257   -2.1513 Q=   -0.8340 A=    0.0000 R=    0.0000 C=    0.0000
 XYZ=  -15.0979   -1.4214   -2.4727 Q=    0.4170 A=    0.0000 R=    0.0000 C=    0.0000
 XYZ=  -15.6155   -2.3855   -1.4505 Q=    0.4170 A=    0.0000 R=    0.0000 C=    0.0000
 XYZ=    4.6337   -7.7268   -0.9908 Q=   -0.8340 A=    0.0000 R=    0.0000 C=    0.0000
 XYZ=    4.7658   -8.6541   -1.2738 Q=    0.4170 A=    0.0000 R=    0.0000 C=    0.0000
 XYZ=    4.3472   -7.8627   -0.0633 Q=    0.4170 A=    0.0000 R=    0.0000 C=    0.0000
 XYZ=  -16.2070  -18.5520    7.1130 Q=   -0.8340 A=    0.0000 R=    0.0000 C=    0.0000
 XYZ=  -16.2330  -17.6650    7.4710 Q=    0.4170 A=    0.0000 R=    0.0000 C=    0.0000
 XYZ=  -16.1270  -19.1180    7.8810 Q=    0.4170 A=    0.0000 R=    0.0000 C=    0.0000
 XYZ=    0.6191   -5.9451    3.1185 Q=   -0.8340 A=    0.0000 R=    0.0000 C=    0.0000
 XYZ=    0.5894   -5.0641    3.5409 Q=    0.4170 A=    0.0000 R=    0.0000 C=    0.0000
 XYZ=    0.9891   -5.7401    2.2354 Q=    0.4170 A=    0.0000 R=    0.0000 C=    0.0000
 XYZ=   -1.7860    5.0830    6.9690 Q=   -0.8340 A=    0.0000 R=    0.0000 C=    0.0000
 XYZ=   -1.7650    4.1740    6.6710 Q=    0.4170 A=    0.0000 R=    0.0000 C=    0.0000
 XYZ=   -0.9250    5.2270    7.3610 Q=    0.4170 A=    0.0000 R=    0.0000 C=    0.0000
 XYZ=   -6.6153  -10.5038   -8.5479 Q=   -0.8340 A=    0.0000 R=    0.0000 C=    0.0000
 XYZ=   -6.5002  -10.9241   -7.6723 Q=    0.4170 A=    0.0000 R=    0.0000 C=    0.0000
 XYZ=   -5.6693  -10.4598   -8.8131 Q=    0.4170 A=    0.0000 R=    0.0000 C=    0.0000
 XYZ=  -23.1330  -11.8930  -15.0410 Q=   -0.8340 A=    0.0000 R=    0.0000 C=    0.0000
 XYZ=  -22.5620  -12.6400  -15.2200 Q=    0.4170 A=    0.0000 R=    0.0000 C=    0.0000
 XYZ=  -23.7570  -12.2180  -14.3910 Q=    0.4170 A=    0.0000 R=    0.0000 C=    0.0000
 XYZ=  -18.6770  -10.7470  -18.5420 Q=   -0.8340 A=    0.0000 R=    0.0000 C=    0.0000
 XYZ=  -17.8870  -10.6410  -18.0110 Q=    0.4170 A=    0.0000 R=    0.0000 C=    0.0000
 XYZ=  -18.3770  -11.1950  -19.3320 Q=    0.4170 A=    0.0000 R=    0.0000 C=    0.0000
 XYZ=  -16.2670  -25.2050    6.8830 Q=   -0.8340 A=    0.0000 R=    0.0000 C=    0.0000
 XYZ=  -16.7890  -25.7850    6.3290 Q=    0.4170 A=    0.0000 R=    0.0000 C=    0.0000
 XYZ=  -15.5200  -25.7400    7.1540 Q=    0.4170 A=    0.0000 R=    0.0000 C=    0.0000
 XYZ=   -0.9385  -13.4410    6.7168 Q=   -0.8340 A=    0.0000 R=    0.0000 C=    0.0000
 XYZ=    0.0052  -13.6239    6.8071 Q=    0.4170 A=    0.0000 R=    0.0000 C=    0.0000
 XYZ=   -1.3078  -14.0280    7.4125 Q=    0.4170 A=    0.0000 R=    0.0000 C=    0.0000
 XYZ=  -11.5030  -29.2470  -12.9310 Q=   -0.8340 A=    0.0000 R=    0.0000 C=    0.0000
 XYZ=  -11.7640  -29.5170  -12.0510 Q=    0.4170 A=    0.0000 R=    0.0000 C=    0.0000
 XYZ=  -10.6390  -29.6400  -13.0570 Q=    0.4170 A=    0.0000 R=    0.0000 C=    0.0000
 XYZ=  -14.5004  -16.5998  -15.2867 Q=   -0.8340 A=    0.0000 R=    0.0000 C=    0.0000
 XYZ=  -13.6949  -17.1471  -15.2082 Q=    0.4170 A=    0.0000 R=    0.0000 C=    0.0000
 XYZ=  -14.1492  -15.6837  -15.2483 Q=    0.4170 A=    0.0000 R=    0.0000 C=    0.0000
 XYZ=   -4.6306  -23.8067  -16.7814 Q=   -0.8340 A=    0.0000 R=    0.0000 C=    0.0000
 XYZ=   -5.1583  -24.0778  -17.5325 Q=    0.4170 A=    0.0000 R=    0.0000 C=    0.0000
 XYZ=   -5.2593  -23.7210  -16.0647 Q=    0.4170 A=    0.0000 R=    0.0000 C=    0.0000
 XYZ=  -11.5270  -28.6850   -5.2900 Q=   -0.8340 A=    0.0000 R=    0.0000 C=    0.0000
 XYZ=  -11.6310  -28.3420   -6.1770 Q=    0.4170 A=    0.0000 R=    0.0000 C=    0.0000
 XYZ=  -12.4200  -28.8700   -4.9980 Q=    0.4170 A=    0.0000 R=    0.0000 C=    0.0000
 XYZ=  -23.4200  -10.9200    1.2950 Q=   -0.8340 A=    0.0000 R=    0.0000 C=    0.0000
 XYZ=  -24.2000  -11.3000    0.8900 Q=    0.4170 A=    0.0000 R=    0.0000 C=    0.0000
 XYZ=  -23.7130  -10.6390    2.1620 Q=    0.4170 A=    0.0000 R=    0.0000 C=    0.0000
 XYZ=  -16.9477  -12.8844    5.5152 Q=   -0.8340 A=    0.0000 R=    0.0000 C=    0.0000
 XYZ=  -17.3265  -13.0645    4.6298 Q=    0.4170 A=    0.0000 R=    0.0000 C=    0.0000
 XYZ=  -17.6410  -13.2169    6.1166 Q=    0.4170 A=    0.0000 R=    0.0000 C=    0.0000
 XYZ=   -4.8938  -15.8391  -16.5946 Q=   -0.8340 A=    0.0000 R=    0.0000 C=    0.0000
 XYZ=   -4.7978  -16.6989  -16.1410 Q=    0.4170 A=    0.0000 R=    0.0000 C=    0.0000
 XYZ=   -5.4631  -15.3562  -15.9635 Q=    0.4170 A=    0.0000 R=    0.0000 C=    0.0000
 XYZ=   -8.3386  -22.0081   -9.6915 Q=   -0.8340 A=    0.0000 R=    0.0000 C=    0.0000
 XYZ=   -9.1095  -21.9834   -9.0791 Q=    0.4170 A=    0.0000 R=    0.0000 C=    0.0000
 XYZ=   -7.6219  -22.0445   -9.0279 Q=    0.4170 A=    0.0000 R=    0.0000 C=    0.0000
 XYZ=  -10.3368   -4.8208  -10.1560 Q=   -0.8340 A=    0.0000 R=    0.0000 C=    0.0000
 XYZ=  -10.3536   -4.1558   -9.4387 Q=    0.4170 A=    0.0000 R=    0.0000 C=    0.0000
 XYZ=  -11.2859   -4.8106  -10.4137 Q=    0.4170 A=    0.0000 R=    0.0000 C=    0.0000
 XYZ=    4.2736    0.8017  -14.2463 Q=   -0.8340 A=    0.0000 R=    0.0000 C=    0.0000
 XYZ=    4.4515   -0.0659  -13.8506 Q=    0.4170 A=    0.0000 R=    0.0000 C=    0.0000
 XYZ=    3.3223    0.7744  -14.4146 Q=    0.4170 A=    0.0000 R=    0.0000 C=    0.0000
 XYZ=   -0.0420    6.0560    2.3520 Q=   -0.8340 A=    0.0000 R=    0.0000 C=    0.0000
 XYZ=   -0.2690    6.9860    2.3500 Q=    0.4170 A=    0.0000 R=    0.0000 C=    0.0000
 XYZ=   -0.5130    5.6920    1.6020 Q=    0.4170 A=    0.0000 R=    0.0000 C=    0.0000
 XYZ=   -9.7840   -3.0600   10.6770 Q=   -0.8340 A=    0.0000 R=    0.0000 C=    0.0000
 XYZ=  -10.2830   -2.6020   10.0010 Q=    0.4170 A=    0.0000 R=    0.0000 C=    0.0000
 XYZ=  -10.1420   -2.7330   11.5020 Q=    0.4170 A=    0.0000 R=    0.0000 C=    0.0000
 XYZ=   -2.5603   -1.1365  -13.2867 Q=   -0.8340 A=    0.0000 R=    0.0000 C=    0.0000
[...]
 4755          -0.026817      0.000568      0.000156     -0.000412
 4756          -0.027088      0.000593      0.000127     -0.000412
 4757          -0.025578      0.000517      0.000143     -0.000374
 4758          -0.024798      0.000389      0.000428     -0.000218
 4759          -0.025687      0.000429      0.000457     -0.000218
 4760          -0.024346      0.000364      0.000429     -0.000196
 4761          -0.028349      0.000427      0.000117     -0.000667
 4762          -0.029519      0.000470      0.000152     -0.000714
 4763          -0.027975      0.000446      0.000094     -0.000634
 4764          -0.067421      0.003185     -0.001575     -0.000428
 4765          -0.068269      0.003657     -0.001610     -0.000889
 4766          -0.066271      0.003300     -0.001654     -0.000665
 4767          -0.049763      0.000256      0.000169      0.002441
 4768          -0.047862      0.000362      0.000021      0.002249
 4769          -0.046613      0.000193      0.000268      0.002136
 4770          -0.030800      0.000493     -0.000791      0.000144
 4771          -0.031682      0.000498     -0.000858      0.000116
 4772          -0.029720      0.000480     -0.000729      0.000105
 4773          -0.025804      0.000482     -0.000024     -0.000457
 4774          -0.027049      0.000527     -0.000022     -0.000504
 4775          -0.025559      0.000492     -0.000021     -0.000426
 4776          -0.025715      0.000205     -0.000618      0.000114
 4777          -0.026400      0.000233     -0.000641      0.000140
 4778          -0.026491      0.000205     -0.000663      0.000101
 4779          -0.023016      0.000470      0.000203      0.000146
 4780          -0.022398      0.000440      0.000207      0.000135
 4781          -0.023707      0.000502      0.000220      0.000138
 4782          -0.025699      0.000560     -0.000255      0.000229
 4783          -0.024727      0.000526     -0.000225      0.000207
 4784          -0.026568      0.000610     -0.000258      0.000231
 4785          -0.030761      0.000451     -0.000528     -0.000644
 4786          -0.031955      0.000513     -0.000536     -0.000703
 4787          -0.029730      0.000452     -0.000495     -0.000577
 4788          -0.077842     -0.002735     -0.004365      0.003181
 4789          -0.085349     -0.004016     -0.005032      0.003445
 4790          -0.076586     -0.002641     -0.003672      0.003667
 4791          -0.024106      0.000148     -0.000038     -0.000559
 4792          -0.023610      0.000128     -0.000022     -0.000541
 4793          -0.023412      0.000156     -0.000040     -0.000523
 4794          -0.027934      0.000217      0.000672      0.000346
 4795          -0.028285      0.000249      0.000668      0.000378
 4796          -0.026597      0.000194      0.000608      0.000317
 4797          -0.028024     -0.000780      0.000074     -0.000058
 4798          -0.027855     -0.000774      0.000034     -0.000051
 4799          -0.028086     -0.000784      0.000089     -0.000021
 4800          -0.036789      0.000677      0.001095     -0.000466
 4801          -0.036745      0.000658      0.001136     -0.000382
 4802          -0.036461      0.000745      0.001033     -0.000436
 4803          -0.029754     -0.000760      0.000082      0.000442
 4804          -0.030751     -0.000824      0.000115      0.000443
 4805          -0.030327     -0.000792      0.000039      0.000462
 4806          -0.038872      0.000244      0.000595      0.001371
 4807          -0.037239      0.000177      0.000606      0.001238
 4808          -0.041059      0.000187      0.000658      0.001542
 4809          -0.023945      0.000343      0.000373     -0.000272
 4810          -0.024141      0.000352      0.000391     -0.000255
 4811          -0.024891      0.000364      0.000400     -0.000306
 4812          -0.061450      0.001008      0.003528      0.001307
 4813          -0.062593      0.001387      0.003688      0.001015
 4814          -0.059994      0.000642      0.003496      0.001004
 4815          -0.024295      0.000315     -0.000405      0.000287
 4816          -0.023497      0.000297     -0.000369      0.000280
 4817          -0.023909      0.000292     -0.000408      0.000270
 4818          -0.027396     -0.000142     -0.000020     -0.000735
 4819          -0.027697     -0.000177     -0.000038     -0.000744
 4820          -0.027566     -0.000117     -0.000046     -0.000748
 4821          -0.034586     -0.000439     -0.000806      0.000765
 4822          -0.036783     -0.000499     -0.000932      0.000843
 4823          -0.034288     -0.000362     -0.000805      0.000774
 4824          -0.036325      0.000526     -0.000667     -0.001019
 4825          -0.034113      0.000449     -0.000579     -0.000911
 4826          -0.036974      0.000468     -0.000733     -0.001068
 4827          -0.038765     -0.000085     -0.000812      0.001252
 4828          -0.041352     -0.000154     -0.000903      0.001432
 4829          -0.038593     -0.000090     -0.000890      0.001182
 4830          -0.027773      0.000525     -0.000250      0.000503
 4831          -0.027059      0.000492     -0.000265      0.000468
 4832          -0.028585      0.000531     -0.000269      0.000555
 4833          -0.025466      0.000326     -0.000298      0.000472
 4834          -0.024742      0.000319     -0.000291      0.000431
 4835          -0.025824      0.000314     -0.000326      0.000486
 4836          -0.032445      0.000775     -0.000087      0.000707
 4837          -0.032360      0.000763     -0.000148      0.000699
 4838          -0.033743      0.000803     -0.000081      0.000803
 4839          -0.024650      0.000407     -0.000313     -0.000322
 4840          -0.024080      0.000372     -0.000310     -0.000316
 4841          -0.025128      0.000424     -0.000342     -0.000315
 4842          -0.101800      0.010595     -0.001148     -0.004669
 4843          -0.087939      0.007902     -0.000331     -0.002786
 4844          -0.121752      0.016498      0.000884     -0.007132
 4845          -0.037751      0.001158     -0.000476     -0.000640
 4846          -0.038469      0.001217     -0.000546     -0.000580
 4847          -0.036695      0.001052     -0.000504     -0.000641
 4848          -0.030489      0.000018     -0.000889      0.000277
 4849          -0.030146      0.000027     -0.000882      0.000225
 4850          -0.029059      0.000021     -0.000801      0.000270
 4851          -0.029364      0.000703     -0.000471     -0.000109
 4852          -0.030780      0.000771     -0.000521     -0.000095
 4853          -0.028904      0.000658     -0.000488     -0.000111
 4854          -0.034690      0.000544     -0.000958      0.000468
 4855          -0.036162      0.000619     -0.001051      0.000449
 4856          -0.035715      0.000514     -0.001032      0.000532
 4857          -0.031419      0.000287     -0.000539     -0.000781
 4858          -0.030555      0.000276     -0.000546     -0.000711
 4859          -0.033142      0.000300     -0.000616     -0.000867
 4860          -0.032874     -0.000096     -0.000278     -0.001043
 4861          -0.032580     -0.000156     -0.000285     -0.001014
 4862          -0.031958     -0.000063     -0.000310     -0.000975
 4863          -0.026816      0.000299     -0.000185      0.000625
 4864          -0.026872      0.000309     -0.000216      0.000613
 4865          -0.027995      0.000335     -0.000186      0.000681
 4866          -0.032490      0.000429      0.000836     -0.000491
 4867          -0.033112      0.000493      0.000867     -0.000471
 4868          -0.030709      0.000392      0.000741     -0.000439
 4869          -0.027416      0.000222     -0.000719     -0.000006
 4870          -0.027905      0.000223     -0.000746      0.000029
 4871          -0.026159      0.000194     -0.000657     -0.000004
 4872          -0.029592     -0.000784      0.000283      0.000261
 4873          -0.030617     -0.000851      0.000301      0.000242
 4874          -0.028333     -0.000728      0.000242      0.000228
 4875          -0.029988     -0.000889     -0.000147      0.000016
 4876          -0.029618     -0.000869     -0.000134     -0.000030
 4877          -0.030077     -0.000886     -0.000196      0.000018
 4878          -0.025906      0.000488     -0.000406     -0.000205
 4879          -0.025888      0.000493     -0.000386     -0.000228
 4880          -0.024923      0.000459     -0.000374     -0.000177
 4881          -0.026982     -0.000508     -0.000373      0.000366
 4882          -0.026967     -0.000484     -0.000399      0.000369
 4883          -0.028311     -0.000566     -0.000403      0.000400
 4884          -0.031682     -0.000216      0.000618     -0.000746
 4885          -0.031648     -0.000243      0.000650     -0.000707
 4886          -0.031426     -0.000163      0.000627     -0.000731
 4887          -0.023432      0.000473     -0.000113      0.000252
 4888          -0.024112      0.000509     -0.000107      0.000256
 4889          -0.022856      0.000448     -0.000093      0.000249
 -----------------------------------------------------------------
 Leave Link  602 at Sat Jun 19 00:22:17 2021, MaxMem=   134217728 cpu:              15.4 elap:               1.0
 (Enter /APL/ISV/x86_64/gaussian/16/C.01/g16/l701.exe)
 ... and contract with generalized density number  0.
 Compute integral first derivatives.
 R6Disp: Adding Grimme-D3 dispersion energy 1st derivatives to the gradient.
 Leave Link  701 at Sat Jun 19 00:22:17 2021, MaxMem=   134217728 cpu:               2.9 elap:               0.2
 (Enter /APL/ISV/x86_64/gaussian/16/C.01/g16/l702.exe)
 L702 exits ... SP integral derivatives will be done elsewhere.
 Leave Link  702 at Sat Jun 19 00:22:17 2021, MaxMem=   134217728 cpu:               0.5 elap:               0.1
 (Enter /APL/ISV/x86_64/gaussian/16/C.01/g16/l703.exe)
 Integral derivatives from FoFJK, PRISM(SPDF).
 Compute integral first derivatives, UseDBF=F ICtDFT=           0.
 Calling FoFJK, ICntrl=      2127 FMM=F ISym2X=0 I1Cent= 0 IOpClX= 0 NMat=1 NMatS=1 NMatT=0.
 FoFJK:  IHMeth= 1 ICntrl=    2127 DoSepK=F KAlg= 0 I1Cent=           0 FoldK=F
 IRaf=         0 NMat=       1 IRICut=       1 DoRegI=T DoRafI=F ISym2E= 0 IDoP0=0 IntGTp=1.
 FoFCou: FMM=F IPFlag=           0 FMFlag=      100000 FMFlg1=         800
         NFxFlg=           0 DoJE=F BraDBF=F KetDBF=F FulRan=T
         wScrn=  0.000000 ICntrl=      2127 IOpCl=  0 I1Cent=           0 NGrid=           0
         NMat0=    1 NMatS0=      1 NMatT0=    0 NMatD0=    1 NMtDS0=    0 NMtDT0=    0
 Symmetry not used in FoFCou.
 Leave Link  703 at Sat Jun 19 00:22:18 2021, MaxMem=   134217728 cpu:               5.6 elap:               0.4
 (Enter /APL/ISV/x86_64/gaussian/16/C.01/g16/l716.exe)
 Dipole        = 8.28239028D+00 2.06064023D+01 1.17067841D+01
 -------------------------------------------------------------------
 Center     Atomic                   Forces (Hartrees/Bohr)
 Number     Number              X              Y              Z
 -------------------------------------------------------------------
      1       15          -0.004092934    0.007310310   -0.002476878
      2        8           0.001752382   -0.008395836    0.004682026
      3        1          -0.003175715    0.001824299   -0.000737445
      4        8          -0.009958493   -0.004878568    0.002128579
      5        1           0.005005719    0.000754174   -0.000316472
      6        8           0.020100780    0.009784793   -0.003569957
      7        8          -0.005834298   -0.024376697   -0.010421122
 -------------------------------------------------------------------
 Cartesian Forces:  Max     0.024376697 RMS     0.008696979
 Force constants in Cartesian coordinates: 
                1             2             3             4             5 
      1  0.110456D+01
      2  0.126526D+00  0.956772D+00
      3 -0.775928D-02  0.137388D+00  0.799937D+00
      4 -0.511510D-01 -0.816900D-03  0.685138D-01  0.294159D+00
      5 -0.569490D-02 -0.342648D-01  0.115060D-01 -0.157628D+00  0.533553D+00
      6  0.908073D-01 -0.102374D-01 -0.347409D+00 -0.171485D-01 -0.147084D+00
      7  0.503887D-01 -0.176685D-02 -0.113088D-01  0.544213D-03  0.172786D+00
      8 -0.279223D-02  0.460897D-01  0.260969D-02  0.171601D+00 -0.248643D+00
      9 -0.102337D-01  0.134130D-01  0.537973D-01 -0.663482D-01  0.176176D+00
     10 -0.116224D+00  0.144094D+00 -0.455899D-01  0.299703D-01 -0.458698D-02
     11  0.129991D+00 -0.278604D+00  0.798251D-01 -0.517115D-02  0.295744D-01
     12 -0.420449D-01  0.884278D-01 -0.332456D-01  0.297312D-02 -0.236511D-01
     13  0.476117D-01 -0.123728D-01  0.468154D-02  0.325790D-01  0.351710D-02
     14  0.157104D-01  0.532923D-01 -0.674861D-02 -0.149525D-02  0.390043D-01
     15 -0.190000D-01  0.333399D-02  0.446298D-01  0.470907D-01 -0.363593D-01
     16 -0.584091D+00 -0.100196D+00  0.808807D-01  0.362267D-01 -0.271616D-02
     17 -0.950790D-01 -0.116117D-01  0.569577D-02 -0.141680D-02  0.245882D-01
     18  0.920667D-01  0.107759D-01 -0.625597D-02 -0.436411D-01 -0.157132D-01
     19 -0.884246D-01 -0.155467D+00 -0.894181D-01  0.203401D-01 -0.567718D-02
     20 -0.168661D+00 -0.369005D+00 -0.230276D+00 -0.507263D-02  0.188568D-01
     21 -0.103836D+00 -0.243102D+00 -0.148785D+00  0.856018D-02  0.351262D-01
                6             7             8             9            10 
      6  0.574327D+00
      7 -0.696157D-01  0.256306D+00
      8  0.169969D+00 -0.143604D+00  0.501561D+00
      9 -0.676023D-01  0.639037D-01 -0.114110D+00  0.204939D+00
     10 -0.950594D-03 -0.293761D-02 -0.795085D-02  0.553687D-02  0.726957D+00
     11 -0.346656D-02 -0.133264D-01  0.161079D-01 -0.173859D-01 -0.596817D-01
     12  0.455691D-01  0.183941D-01 -0.597427D-01  0.152365D-01 -0.188494D-01
     13 -0.771255D-03  0.225716D-02 -0.853993D-02  0.395643D-02 -0.362805D+00
     14 -0.180129D-02 -0.360556D-01  0.170247D-01 -0.131058D-01 -0.269010D-01
     15  0.497789D-01  0.629423D-01 -0.457202D-01  0.151366D-01  0.398143D-01
     16 -0.806862D-03  0.271371D-01 -0.372199D-02  0.234901D-02  0.594008D-01
     17 -0.272783D-02  0.312504D-01  0.312777D-01 -0.174613D-01 -0.446192D-01
     18  0.516431D-01 -0.831201D-01 -0.218569D-01  0.542380D-01  0.158951D-01
     19 -0.151448D-02  0.289731D-01 -0.499229D-02  0.835988D-03  0.283073D-01
     20 -0.465189D-02 -0.928423D-02 -0.749173D-03 -0.275258D-01 -0.354428D-03
     21  0.563609D-01  0.188045D-01  0.688507D-01  0.869235D-01  0.414350D-02
               11            12            13            14            15 
     11  0.463490D+00
     12 -0.760922D-01  0.214000D+00
     13 -0.413318D-01  0.450210D-01  0.561162D+00
     14  0.210126D-01  0.346494D-01  0.110367D+00  0.182820D+00
     15  0.355311D-01  0.622489D-01 -0.698993D-01  0.886283D-02  0.176079D+00
     16  0.287951D-04 -0.386335D-02  0.622588D-01  0.526555D-02 -0.176988D-01
     17  0.449609D-01  0.116282D-01 -0.594989D-01 -0.273359D-01  0.557760D-02
     18 -0.165415D-02  0.373854D-01  0.189333D-01 -0.637201D-02 -0.933317D-02
     19 -0.105092D-01 -0.163058D-02  0.196050D-01 -0.668908D-01 -0.432493D-01
     20  0.661259D-01  0.247805D-01  0.785956D-02  0.768503D-01  0.287739D-01
     21 -0.167575D-01  0.214739D-01 -0.192168D-02 -0.154845D-01  0.241285D-01
               16            17            18            19            20 
     16  0.697986D+00
     17  0.990270D-01  0.238437D+00
     18 -0.541872D-01  0.194540D-01  0.209536D+00
     19  0.637502D-01  0.703364D-01  0.540533D-01  0.290117D+00
     20  0.231253D-02  0.623520D-01  0.153664D-01  0.173201D+00  0.508238D+00
     21 -0.667355D-02 -0.221664D-01  0.254554D-01  0.809232D-01  0.193533D+00
               21 
     21  0.297111D+00
 Leave Link  716 at Sat Jun 19 00:22:18 2021, MaxMem=   134217728 cpu:               0.3 elap:               0.0
 (Enter /APL/ISV/x86_64/gaussian/16/C.01/g16/l103.exe)

 GradGradGradGradGradGradGradGradGradGradGradGradGradGradGradGradGradGrad
 Berny optimization.
 Search for a local minimum.
 Step number   1 out of a maximum of    2
 All quantities printed in internal units (Hartrees-Bohrs-Radians)
 Second derivative matrix not updated -- first step.
 ITU=  0
     Eigenvalues ---    0.03732   0.07183   0.07693   0.08372   0.10562
     Eigenvalues ---    0.12668   0.15137   0.15864   0.18594   0.53658
     Eigenvalues ---    0.84996   0.96197   1.16307   1.42164   1.70755
 Angle between quadratic step and forces=  54.88 degrees.
 Linear search not attempted -- first point.
 Variable       Old X    -DE/DX   Delta X   Delta X   Delta X     New X
                                 (Linear)    (Quad)   (Total)
    X1       -9.91550  -0.00409   0.00000   0.01012   0.01012  -9.90538
    Y1      -19.98346   0.00731   0.00000  -0.00761  -0.00761 -19.99108
    Z1      -10.17554  -0.00248   0.00000  -0.02353  -0.02353 -10.19907
    X2      -10.64130   0.00175   0.00000  -0.01512  -0.01512 -10.65642
    Y2      -20.10751  -0.00840   0.00000   0.00290   0.00290 -20.10461
    Z2       -7.13781   0.00468   0.00000  -0.01397  -0.01397  -7.15178
    X3       -9.91635  -0.00318   0.00000  -0.04735  -0.04735  -9.96371
    Y3      -21.62907   0.00182   0.00000   0.00782   0.00782 -21.62125
    Z3       -6.37790  -0.00074   0.00000   0.00810   0.00810  -6.36980
    X4      -11.52042  -0.00996   0.00000   0.00536   0.00536 -11.51506
    Y4      -17.43433  -0.00488   0.00000   0.00807   0.00807 -17.42626
    Z4      -10.92729   0.00213   0.00000   0.02655   0.02655 -10.90074
    X5      -13.37111   0.00501   0.00000   0.01622   0.01622 -13.35489
    Y5      -17.70262   0.00075   0.00000   0.02231   0.02231 -17.68030
    Z5      -10.69911  -0.00032   0.00000   0.03238   0.03238 -10.66673
    X6       -7.08463   0.02010   0.00000   0.03598   0.03598  -7.04865
    Y6      -19.49324   0.00978   0.00000   0.04382   0.04382 -19.44942
    Z6      -10.54557  -0.00357   0.00000  -0.00283  -0.00283 -10.54839
    X7      -10.98987  -0.00583   0.00000  -0.02907  -0.02907 -11.01894
    Y7      -22.28896  -0.02438   0.00000  -0.05502  -0.05502 -22.34398
    Z7      -11.58809  -0.01042   0.00000   0.00816   0.00816 -11.57993
         Item               Value     Threshold  Converged?
 Maximum Force            0.024377     0.000450     NO 
 RMS     Force            0.008697     0.000300     NO 
 Maximum Displacement     0.055015     0.001800     NO 
 RMS     Displacement     0.025152     0.001200     NO 
 Predicted change in Energy=-1.321450D-03
 GradGradGradGradGradGradGradGradGradGradGradGradGradGradGradGradGradGrad

 Leave Link  103 at Sat Jun 19 00:22:18 2021, MaxMem=   134217728 cpu:               0.2 elap:               0.0
 (Enter /APL/ISV/x86_64/gaussian/16/C.01/g16/l9999.exe)

 Test job not archived.
 1\1\GINC-LEMON\Force\RB3LYP\CC-pVDZ\H2O4P1(1-)\YAGI\19-Jun-2021\0\\#P 
 B3LYP/cc-pVDZ EmpiricalDispersion=GD3 scf(conver=8) iop(4/5=100) nosym
 m Charge Force Prop=(Field,Read) pop=mk\\Gaussian run for QMMM in gene
 sis\\-1,1\P,-5.2470590446,-10.5747924888,-5.3846652506\O,-5.6311341768
 ,-10.6404364634,-3.7771648625\H,-5.2475087873,-11.4456131959,-3.375039
 1717\O,-6.0963444741,-9.2258494924,-5.7824753383\H,-7.0756857222,-9.36
 78223099,-5.6617237481\O,-3.7490238512,-10.3153770499,-5.5804736938\O,
 -5.8155869006,-11.794811104,-6.1321520538\\Version=ES64L-G16RevC.01\HF
 =-1130.2912716\RMSD=8.063e-09\RMSF=8.697e-03\Dipole=-1.797401,0.735464
 8,1.6802494\Quadrupole=141.8608793,-217.4607476,75.5998682,-176.391402
 7,-98.4634822,-244.8909352\PG=C01 [X(H2O4P1)]\\@


 ... FOR AFTERWARDS A MAN FINDS PLEASURE IN HIS PAINS,
 WHEN HE HAS SUFFERED LONG AND WANDERED FAR.

                                    -- HOMER
 Job cpu time:       0 days  0 hours  1 minutes  5.0 seconds.
 Elapsed time:       0 days  0 hours  0 minutes  4.7 seconds.
 File lengths (MBytes):  RWF=     10 Int=      0 D2E=      0 Chk=      2 Scr=      1
 Normal termination of Gaussian 16 at Sat Jun 19 00:22:18 2021.

real	0m5.005s
user	1m4.026s
sys	0m1.231s
