 Entering Gaussian System, Link 0=g16
 Initial command:
 /APL/ISV/x86_64/gaussian/16/C.01/g16/l1.exe "/scr/yagi/job30.kKSb/Gau-19590.inp" -scrdir="/scr/yagi/job30.kKSb/"
 Entering Link 1 = /APL/ISV/x86_64/gaussian/16/C.01/g16/l1.exe PID=     19591.
  
 Copyright (c) 1988-2019, Gaussian, Inc.  All Rights Reserved.
  
 This is part of the Gaussian(R) 16 program.  It is based on
 the Gaussian(R) 09 system (copyright 2009, Gaussian, Inc.),
 the Gaussian(R) 03 system (copyright 2003, Gaussian, Inc.),
 the Gaussian(R) 98 system (copyright 1998, Gaussian, Inc.),
 the Gaussian(R) 94 system (copyright 1995, Gaussian, Inc.),
 the Gaussian 92(TM) system (copyright 1992, Gaussian, Inc.),
 the Gaussian 90(TM) system (copyright 1990, Gaussian, Inc.),
 the Gaussian 88(TM) system (copyright 1988, Gaussian, Inc.),
 the Gaussian 86(TM) system (copyright 1986, Carnegie Mellon
 University), and the Gaussian 82(TM) system (copyright 1983,
 Carnegie Mellon University). Gaussian is a federally registered
 trademark of Gaussian, Inc.
  
 This software contains proprietary and confidential information,
 including trade secrets, belonging to Gaussian, Inc.
  
 This software is provided under written license and may be
 used, copied, transmitted, or stored only in accord with that
 written license.
  
 The following legend is applicable only to US Government
 contracts under FAR:
  
                    RESTRICTED RIGHTS LEGEND
  
 Use, reproduction and disclosure by the US Government is
 subject to restrictions as set forth in subparagraphs (a)
 and (c) of the Commercial Computer Software - Restricted
 Rights clause in FAR 52.227-19.
  
 Gaussian, Inc.
 340 Quinnipiac St., Bldg. 40, Wallingford CT 06492
  
  
 ---------------------------------------------------------------
 Warning -- This program may not be used in any manner that
 competes with the business of Gaussian, Inc. or will provide
 assistance to any competitor of Gaussian, Inc.  The licensee
 of this program is prohibited from giving any competitor of
 Gaussian, Inc. access to this program.  By using this program,
 the user acknowledges that Gaussian, Inc. is engaged in the
 business of creating and licensing software in the field of
 computational chemistry and represents and warrants to the
 licensee that it is not a competitor of Gaussian, Inc. and that
 it will not use this program in any manner prohibited above.
 ---------------------------------------------------------------
  

 Cite this work as:
 Gaussian 16, Revision C.01,
 M. J. Frisch, G. W. Trucks, H. B. Schlegel, G. E. Scuseria, 
 M. A. Robb, J. R. Cheeseman, G. Scalmani, V. Barone, 
 G. A. Petersson, H. Nakatsuji, X. Li, M. Caricato, A. V. Marenich, 
 J. Bloino, B. G. Janesko, R. Gomperts, B. Mennucci, H. P. Hratchian, 
 J. V. Ortiz, A. F. Izmaylov, J. L. Sonnenberg, D. Williams-Young, 
 F. Ding, F. Lipparini, F. Egidi, J. Goings, B. Peng, A. Petrone, 
 T. Henderson, D. Ranasinghe, V. G. Zakrzewski, J. Gao, N. Rega, 
 G. Zheng, W. Liang, M. Hada, M. Ehara, K. Toyota, R. Fukuda, 
 J. Hasegawa, M. Ishida, T. Nakajima, Y. Honda, O. Kitao, H. Nakai, 
 T. Vreven, K. Throssell, J. A. Montgomery, Jr., J. E. Peralta, 
 F. Ogliaro, M. J. Bearpark, J. J. Heyd, E. N. Brothers, K. N. Kudin, 
 V. N. Staroverov, T. A. Keith, R. Kobayashi, J. Normand, 
 K. Raghavachari, A. P. Rendell, J. C. Burant, S. S. Iyengar, 
 J. Tomasi, M. Cossi, J. M. Millam, M. Klene, C. Adamo, R. Cammi, 
 J. W. Ochterski, R. L. Martin, K. Morokuma, O. Farkas, 
 J. B. Foresman, and D. J. Fox, Gaussian, Inc., Wallingford CT, 2019.
 
 ******************************************
 Gaussian 16:  ES64L-G16RevC.01  3-Jul-2019
                19-Jun-2021 
 ******************************************
 %NprocShared=16
 Will use up to   16 processors via shared memory.
 %chk=gaussian.chk
 %mem=1gb
 ----------------------------------------------------------------------
 #P B3LYP/cc-pVDZ EmpiricalDispersion=GD3 scf(conver=8) iop(4/5=100) no
 symm Charge Force Prop=(Field,Read) pop=mk
 ----------------------------------------------------------------------
 1/10=7,18=10,28=-2,30=1,38=1,125=101/1,3;
 2/12=2,15=1,17=6,18=5,29=2,40=1/2;
 3/5=16,11=2,25=1,30=1,71=1,74=-5,124=31/1,2,3;
 4/5=100/1;
 5/5=2,6=8,38=5/2;
 6/7=2,8=2,9=2,10=2,14=2,15=9,20=1,28=1/1,2;
 7/7=1,16=-2,29=1,30=1/1,2,3,16;
 1/10=7,18=10,28=-2,30=1/3;
 99/12=1/99;
 Leave Link    1 at Sat Jun 19 00:24:07 2021, MaxMem=   134217728 cpu:               0.7 elap:               0.0
 (Enter /APL/ISV/x86_64/gaussian/16/C.01/g16/l101.exe)
 --------------------------------
 Gaussian run for QMMM in genesis
 --------------------------------
 Symbolic Z-matrix:
 Charge = -1 Multiplicity = 1
 P                    -5.03179  -10.66956  -5.3821 
 O                    -5.63471  -10.85226  -3.8638 
 H                    -5.55785  -11.78299  -3.54527 
 O                    -5.76344  -9.27745  -5.78781 
 H                    -6.75248  -9.37285  -5.66775 
 O                    -3.5213   -10.39137  -5.40198 
 O                    -5.54873  -11.84661  -6.25553 
 
 ITRead=  0  0  0  0  0  0  0
 MicOpt= -1 -1 -1 -1 -1 -1 -1
 NAtoms=      7 NQM=        7 NQMF=       0 NMMI=      0 NMMIF=      0
                NMic=       0 NMicF=      0.
                    Isotopes and Nuclear Properties:
 (Nuclear quadrupole moments (NQMom) in fm**2, nuclear magnetic moments (NMagM)
  in nuclear magnetons)

  Atom         1           2           3           4           5           6           7
 IAtWgt=          31          16           1          16           1          16          16
 AtmWgt=  30.9737634  15.9949146   1.0078250  15.9949146   1.0078250  15.9949146  15.9949146
 NucSpn=           1           0           1           0           1           0           0
 AtZEff=  -0.0000000  -0.0000000  -0.0000000  -0.0000000  -0.0000000  -0.0000000  -0.0000000
 NQMom=    0.0000000   0.0000000   0.0000000   0.0000000   0.0000000   0.0000000   0.0000000
 NMagM=    1.1316000   0.0000000   2.7928460   0.0000000   2.7928460   0.0000000   0.0000000
 AtZNuc=  15.0000000   8.0000000   1.0000000   8.0000000   1.0000000   8.0000000   8.0000000
 Background charge distribution read from input stream:
 Point Charges:
 XYZ=   -2.6965  -14.6162  -20.9753 Q=   -0.8340 A=    0.0000 R=    0.0000 C=    0.0000
 XYZ=   -2.7276  -14.8121  -20.0204 Q=    0.4170 A=    0.0000 R=    0.0000 C=    0.0000
 XYZ=   -1.7792  -14.8619  -21.1895 Q=    0.4170 A=    0.0000 R=    0.0000 C=    0.0000
 XYZ=    1.0798   -4.2188  -12.8061 Q=   -0.8340 A=    0.0000 R=    0.0000 C=    0.0000
 XYZ=    0.7813   -3.3630  -13.1793 Q=    0.4170 A=    0.0000 R=    0.0000 C=    0.0000
 XYZ=    1.9685   -3.9648  -12.5065 Q=    0.4170 A=    0.0000 R=    0.0000 C=    0.0000
 XYZ=    5.0563  -20.5448   -5.6894 Q=   -0.8340 A=    0.0000 R=    0.0000 C=    0.0000
 XYZ=    4.2513  -20.3410   -6.1654 Q=    0.4170 A=    0.0000 R=    0.0000 C=    0.0000
 XYZ=    5.5003  -19.7018   -5.5967 Q=    0.4170 A=    0.0000 R=    0.0000 C=    0.0000
 XYZ=  -19.6426  -15.7503   -0.6726 Q=   -0.8340 A=    0.0000 R=    0.0000 C=    0.0000
 XYZ=  -19.9562  -15.1981    0.0724 Q=    0.4170 A=    0.0000 R=    0.0000 C=    0.0000
 XYZ=  -19.3508  -16.5559   -0.1917 Q=    0.4170 A=    0.0000 R=    0.0000 C=    0.0000
 XYZ=   -5.5930   -9.4960   11.9470 Q=   -0.8340 A=    0.0000 R=    0.0000 C=    0.0000
 XYZ=   -4.8730   -9.3010   11.3470 Q=    0.4170 A=    0.0000 R=    0.0000 C=    0.0000
 XYZ=   -5.2990  -10.2650   12.4340 Q=    0.4170 A=    0.0000 R=    0.0000 C=    0.0000
 XYZ=  -17.9578  -15.7281    2.1342 Q=   -0.8340 A=    0.0000 R=    0.0000 C=    0.0000
 XYZ=  -18.7915  -16.2297    2.2247 Q=    0.4170 A=    0.0000 R=    0.0000 C=    0.0000
 XYZ=  -17.3062  -16.4168    2.3331 Q=    0.4170 A=    0.0000 R=    0.0000 C=    0.0000
 XYZ=  -20.5030   -8.7000  -18.3330 Q=   -0.8340 A=    0.0000 R=    0.0000 C=    0.0000
 XYZ=  -20.1000   -7.9550  -18.7790 Q=    0.4170 A=    0.0000 R=    0.0000 C=    0.0000
 XYZ=  -19.9410   -9.4440  -18.5520 Q=    0.4170 A=    0.0000 R=    0.0000 C=    0.0000
 XYZ=  -21.7340  -19.2730   -3.2290 Q=   -0.8340 A=    0.0000 R=    0.0000 C=    0.0000
 XYZ=  -21.4420  -19.8120   -3.9640 Q=    0.4170 A=    0.0000 R=    0.0000 C=    0.0000
 XYZ=  -21.3640  -18.4080   -3.4020 Q=    0.4170 A=    0.0000 R=    0.0000 C=    0.0000
 XYZ=   -7.2651    2.3632    5.3325 Q=   -0.8340 A=    0.0000 R=    0.0000 C=    0.0000
 XYZ=   -7.5204    3.0068    4.6506 Q=    0.4170 A=    0.0000 R=    0.0000 C=    0.0000
 XYZ=   -7.7448    2.6977    6.1178 Q=    0.4170 A=    0.0000 R=    0.0000 C=    0.0000
 XYZ=  -20.7830  -19.9770   -0.1600 Q=   -0.8340 A=    0.0000 R=    0.0000 C=    0.0000
 XYZ=  -21.3390  -19.8850   -0.9340 Q=    0.4170 A=    0.0000 R=    0.0000 C=    0.0000
 XYZ=  -20.1610  -20.6670   -0.3920 Q=    0.4170 A=    0.0000 R=    0.0000 C=    0.0000
 XYZ=   -1.4497  -18.7808    3.8070 Q=   -0.8340 A=    0.0000 R=    0.0000 C=    0.0000
 XYZ=   -1.3199  -19.6856    3.4551 Q=    0.4170 A=    0.0000 R=    0.0000 C=    0.0000
 XYZ=   -2.2067  -18.9643    4.3978 Q=    0.4170 A=    0.0000 R=    0.0000 C=    0.0000
 XYZ=  -20.9678  -14.2424    1.2259 Q=   -0.8340 A=    0.0000 R=    0.0000 C=    0.0000
 XYZ=  -20.7390  -13.3146    1.4335 Q=    0.4170 A=    0.0000 R=    0.0000 C=    0.0000
 XYZ=  -21.5716  -14.0991    0.4663 Q=    0.4170 A=    0.0000 R=    0.0000 C=    0.0000
 XYZ=  -22.5140  -16.5510    6.1750 Q=   -0.8340 A=    0.0000 R=    0.0000 C=    0.0000
 XYZ=  -22.8920  -16.5770    7.0540 Q=    0.4170 A=    0.0000 R=    0.0000 C=    0.0000
 XYZ=  -22.7990  -17.3680    5.7660 Q=    0.4170 A=    0.0000 R=    0.0000 C=    0.0000
 XYZ=   -4.0717  -13.3133    9.3743 Q=   -0.8340 A=    0.0000 R=    0.0000 C=    0.0000
 XYZ=   -4.4520  -12.8293   10.1386 Q=    0.4170 A=    0.0000 R=    0.0000 C=    0.0000
 XYZ=   -3.5051  -12.5974    9.0178 Q=    0.4170 A=    0.0000 R=    0.0000 C=    0.0000
 XYZ=   -3.3600  -21.5272    0.8275 Q=   -0.8340 A=    0.0000 R=    0.0000 C=    0.0000
 XYZ=   -3.8901  -22.3535    0.8024 Q=    0.4170 A=    0.0000 R=    0.0000 C=    0.0000
 XYZ=   -4.0537  -20.8789    0.5884 Q=    0.4170 A=    0.0000 R=    0.0000 C=    0.0000
 XYZ=   -9.0906  -24.0907  -11.3696 Q=   -0.8340 A=    0.0000 R=    0.0000 C=    0.0000
 XYZ=   -8.8486  -23.3095  -10.8287 Q=    0.4170 A=    0.0000 R=    0.0000 C=    0.0000
 XYZ=   -8.4445  -24.7336  -11.0170 Q=    0.4170 A=    0.0000 R=    0.0000 C=    0.0000
 XYZ=  -19.2529  -13.3545  -14.3798 Q=   -0.8340 A=    0.0000 R=    0.0000 C=    0.0000
 XYZ=  -19.2533  -13.1071  -13.4266 Q=    0.4170 A=    0.0000 R=    0.0000 C=    0.0000
 XYZ=  -20.2056  -13.3608  -14.5800 Q=    0.4170 A=    0.0000 R=    0.0000 C=    0.0000
 XYZ=  -17.7510    1.0020  -15.1100 Q=   -0.8340 A=    0.0000 R=    0.0000 C=    0.0000
 XYZ=  -17.1890    0.2420  -14.9580 Q=    0.4170 A=    0.0000 R=    0.0000 C=    0.0000
 XYZ=  -17.2010    1.7550  -14.8950 Q=    0.4170 A=    0.0000 R=    0.0000 C=    0.0000
 XYZ=   -3.6953   -7.0011    4.1206 Q=   -0.8340 A=    0.0000 R=    0.0000 C=    0.0000
 XYZ=   -4.2929   -6.2738    3.8530 Q=    0.4170 A=    0.0000 R=    0.0000 C=    0.0000
 XYZ=   -3.6520   -6.8198    5.0890 Q=    0.4170 A=    0.0000 R=    0.0000 C=    0.0000
 XYZ=    5.9960  -25.0310   -6.8440 Q=   -0.8340 A=    0.0000 R=    0.0000 C=    0.0000
 XYZ=    6.2450  -25.2160   -7.7490 Q=    0.4170 A=    0.0000 R=    0.0000 C=    0.0000
 XYZ=    6.5630  -25.5950   -6.3180 Q=    0.4170 A=    0.0000 R=    0.0000 C=    0.0000
 XYZ=  -18.1564  -13.1405    2.9405 Q=   -0.8340 A=    0.0000 R=    0.0000 C=    0.0000
 XYZ=  -18.1722  -14.0773    2.6438 Q=    0.4170 A=    0.0000 R=    0.0000 C=    0.0000
 XYZ=  -19.0857  -13.0144    3.2300 Q=    0.4170 A=    0.0000 R=    0.0000 C=    0.0000
 XYZ=    5.1020  -24.2100  -13.9410 Q=   -0.8340 A=    0.0000 R=    0.0000 C=    0.0000
 XYZ=    4.2860  -24.5860  -14.2730 Q=    0.4170 A=    0.0000 R=    0.0000 C=    0.0000
 XYZ=    5.5770  -24.9540  -13.5710 Q=    0.4170 A=    0.0000 R=    0.0000 C=    0.0000
 XYZ=  -11.7830    2.5430  -17.5750 Q=   -0.8340 A=    0.0000 R=    0.0000 C=    0.0000
 XYZ=  -11.3150    1.9990  -18.2080 Q=    0.4170 A=    0.0000 R=    0.0000 C=    0.0000
 XYZ=  -11.5370    2.1850  -16.7220 Q=    0.4170 A=    0.0000 R=    0.0000 C=    0.0000
 XYZ=    6.7990  -21.9970    4.9320 Q=   -0.8340 A=    0.0000 R=    0.0000 C=    0.0000
 XYZ=    6.5480  -21.0880    5.0980 Q=    0.4170 A=    0.0000 R=    0.0000 C=    0.0000
 XYZ=    7.1110  -21.9980    4.0270 Q=    0.4170 A=    0.0000 R=    0.0000 C=    0.0000
 XYZ=    5.2947  -13.1862    2.5082 Q=   -0.8340 A=    0.0000 R=    0.0000 C=    0.0000
 XYZ=    6.2052  -13.0324    2.1742 Q=    0.4170 A=    0.0000 R=    0.0000 C=    0.0000
 XYZ=    5.4730  -13.5205    3.4126 Q=    0.4170 A=    0.0000 R=    0.0000 C=    0.0000
 XYZ=  -11.1612  -27.0983   -7.6161 Q=   -0.8340 A=    0.0000 R=    0.0000 C=    0.0000
 XYZ=  -11.3180  -27.2458   -8.5488 Q=    0.4170 A=    0.0000 R=    0.0000 C=    0.0000
 XYZ=  -10.3485  -27.5693   -7.4320 Q=    0.4170 A=    0.0000 R=    0.0000 C=    0.0000
 XYZ=  -25.2000  -16.9990    1.4350 Q=   -0.8340 A=    0.0000 R=    0.0000 C=    0.0000
 XYZ=  -25.5770  -17.8140    1.1020 Q=    0.4170 A=    0.0000 R=    0.0000 C=    0.0000
 XYZ=  -24.2810  -17.2090    1.5990 Q=    0.4170 A=    0.0000 R=    0.0000 C=    0.0000
 XYZ=   10.6880   -5.7230   -6.7422 Q=   -0.8340 A=    0.0000 R=    0.0000 C=    0.0000
 XYZ=    9.8846   -5.9134   -6.2117 Q=    0.4170 A=    0.0000 R=    0.0000 C=    0.0000
 XYZ=   10.6124   -6.3859   -7.4559 Q=    0.4170 A=    0.0000 R=    0.0000 C=    0.0000
 XYZ=   -9.2605  -12.3827    5.9057 Q=   -0.8340 A=    0.0000 R=    0.0000 C=    0.0000
 XYZ=   -9.3750  -12.7201    4.9909 Q=    0.4170 A=    0.0000 R=    0.0000 C=    0.0000
 XYZ=   -9.5478  -11.4546    5.7751 Q=    0.4170 A=    0.0000 R=    0.0000 C=    0.0000
 XYZ=  -14.2442   -3.7202  -19.2742 Q=   -0.8340 A=    0.0000 R=    0.0000 C=    0.0000
 XYZ=  -14.3203   -4.0073  -20.1842 Q=    0.4170 A=    0.0000 R=    0.0000 C=    0.0000
 XYZ=  -14.3791   -2.7732  -19.3094 Q=    0.4170 A=    0.0000 R=    0.0000 C=    0.0000
 XYZ=   -8.2779  -14.5116  -19.5820 Q=   -0.8340 A=    0.0000 R=    0.0000 C=    0.0000
 XYZ=   -7.6622  -14.2644  -20.2934 Q=    0.4170 A=    0.0000 R=    0.0000 C=    0.0000
 XYZ=   -7.8360  -15.3287  -19.2485 Q=    0.4170 A=    0.0000 R=    0.0000 C=    0.0000
 XYZ=   -4.1330    5.8640    5.6920 Q=   -0.8340 A=    0.0000 R=    0.0000 C=    0.0000
 XYZ=   -3.4210    5.9530    6.3250 Q=    0.4170 A=    0.0000 R=    0.0000 C=    0.0000
 XYZ=   -4.1930    4.9220    5.5300 Q=    0.4170 A=    0.0000 R=    0.0000 C=    0.0000
 XYZ=  -14.9650  -11.6773    1.6335 Q=   -0.8340 A=    0.0000 R=    0.0000 C=    0.0000
 XYZ=  -14.5796  -10.9405    2.1434 Q=    0.4170 A=    0.0000 R=    0.0000 C=    0.0000
 XYZ=  -14.1779  -11.9589    1.1203 Q=    0.4170 A=    0.0000 R=    0.0000 C=    0.0000
 XYZ=   -5.2958  -15.8842   -7.9896 Q=   -0.8340 A=    0.0000 R=    0.0000 C=    0.0000
 XYZ=   -4.5599  -16.4444   -8.2663 Q=    0.4170 A=    0.0000 R=    0.0000 C=    0.0000
 XYZ=   -4.8451  -15.0140   -7.9202 Q=    0.4170 A=    0.0000 R=    0.0000 C=    0.0000
 XYZ=  -17.8153   -4.5558  -15.0530 Q=   -0.8340 A=    0.0000 R=    0.0000 C=    0.0000
 XYZ=  -18.2526   -5.3725  -15.3405 Q=    0.4170 A=    0.0000 R=    0.0000 C=    0.0000
 XYZ=  -18.4877   -3.8883  -15.3038 Q=    0.4170 A=    0.0000 R=    0.0000 C=    0.0000
 XYZ=    5.7463  -16.8087   -8.1384 Q=   -0.8340 A=    0.0000 R=    0.0000 C=    0.0000
 XYZ=    6.3895  -16.1083   -7.8816 Q=    0.4170 A=    0.0000 R=    0.0000 C=    0.0000
 XYZ=    5.0303  -16.5606   -7.5243 Q=    0.4170 A=    0.0000 R=    0.0000 C=    0.0000
 XYZ=  -11.9690  -26.2380  -16.1010 Q=   -0.8340 A=    0.0000 R=    0.0000 C=    0.0000
 XYZ=  -12.9220  -26.3080  -16.0580 Q=    0.4170 A=    0.0000 R=    0.0000 C=    0.0000
 XYZ=  -11.6790  -27.0940  -16.4170 Q=    0.4170 A=    0.0000 R=    0.0000 C=    0.0000
 XYZ=  -13.7270    7.0930  -10.9470 Q=   -0.8340 A=    0.0000 R=    0.0000 C=    0.0000
 XYZ=  -13.7370    7.9660  -11.3390 Q=    0.4170 A=    0.0000 R=    0.0000 C=    0.0000
 XYZ=  -12.8890    6.7180  -11.2160 Q=    0.4170 A=    0.0000 R=    0.0000 C=    0.0000
 XYZ=    7.5890    1.3110  -15.5450 Q=   -0.8340 A=    0.0000 R=    0.0000 C=    0.0000
 XYZ=    8.1750    1.4020  -14.7940 Q=    0.4170 A=    0.0000 R=    0.0000 C=    0.0000
 XYZ=    7.2870    2.2020  -15.7240 Q=    0.4170 A=    0.0000 R=    0.0000 C=    0.0000
 XYZ=  -17.5940  -10.4620   10.7710 Q=   -0.8340 A=    0.0000 R=    0.0000 C=    0.0000
 XYZ=  -17.9620  -10.2380   11.6250 Q=    0.4170 A=    0.0000 R=    0.0000 C=    0.0000
 XYZ=  -16.8110   -9.9170   10.6960 Q=    0.4170 A=    0.0000 R=    0.0000 C=    0.0000
 XYZ=   -4.4890   -0.0580  -22.2840 Q=   -0.8340 A=    0.0000 R=    0.0000 C=    0.0000
 XYZ=   -3.9370   -0.8150  -22.4830 Q=    0.4170 A=    0.0000 R=    0.0000 C=    0.0000
 XYZ=   -5.0980   -0.3750  -21.6170 Q=    0.4170 A=    0.0000 R=    0.0000 C=    0.0000
 XYZ=  -21.8117   -3.6425   -5.1271 Q=   -0.8340 A=    0.0000 R=    0.0000 C=    0.0000
 XYZ=  -22.6922   -3.8736   -5.4232 Q=    0.4170 A=    0.0000 R=    0.0000 C=    0.0000
 XYZ=  -21.2868   -4.4235   -5.3025 Q=    0.4170 A=    0.0000 R=    0.0000 C=    0.0000
 XYZ=  -18.7740   -1.1270  -16.7720 Q=   -0.8340 A=    0.0000 R=    0.0000 C=    0.0000
 XYZ=  -19.3860   -1.7410  -16.3670 Q=    0.4170 A=    0.0000 R=    0.0000 C=    0.0000
 XYZ=  -18.4860   -0.5650  -16.0530 Q=    0.4170 A=    0.0000 R=    0.0000 C=    0.0000
 XYZ=  -16.1155  -23.4797   -3.4881 Q=   -0.8340 A=    0.0000 R=    0.0000 C=    0.0000
 XYZ=  -15.5352  -22.8762   -3.0240 Q=    0.4170 A=    0.0000 R=    0.0000 C=    0.0000
 XYZ=  -15.5677  -24.2414   -3.6776 Q=    0.4170 A=    0.0000 R=    0.0000 C=    0.0000
 XYZ=    9.5420  -21.0270  -12.6220 Q=   -0.8340 A=    0.0000 R=    0.0000 C=    0.0000
 XYZ=   10.3070  -20.4540  -12.5650 Q=    0.4170 A=    0.0000 R=    0.0000 C=    0.0000
 XYZ=    9.6990  -21.5590  -13.4020 Q=    0.4170 A=    0.0000 R=    0.0000 C=    0.0000
 XYZ=  -12.0995   -7.4000    3.7389 Q=   -0.8340 A=    0.0000 R=    0.0000 C=    0.0000
 XYZ=  -11.2261   -7.0065    3.9635 Q=    0.4170 A=    0.0000 R=    0.0000 C=    0.0000
 XYZ=  -12.4039   -7.6384    4.6502 Q=    0.4170 A=    0.0000 R=    0.0000 C=    0.0000
 XYZ=    9.4390   -5.1810    4.5990 Q=   -0.8340 A=    0.0000 R=    0.0000 C=    0.0000
 XYZ=    9.4310   -5.6600    3.7710 Q=    0.4170 A=    0.0000 R=    0.0000 C=    0.0000
 XYZ=    9.3890   -5.8610    5.2710 Q=    0.4170 A=    0.0000 R=    0.0000 C=    0.0000
 XYZ=    0.9798  -16.8262    7.3057 Q=   -0.8340 A=    0.0000 R=    0.0000 C=    0.0000
 XYZ=    0.0880  -16.9450    6.9249 Q=    0.4170 A=    0.0000 R=    0.0000 C=    0.0000
 XYZ=    1.1796  -17.7661    7.5063 Q=    0.4170 A=    0.0000 R=    0.0000 C=    0.0000
 XYZ=   -2.3670  -28.1780   -8.6920 Q=   -0.8340 A=    0.0000 R=    0.0000 C=    0.0000
 XYZ=   -2.3860  -28.7870   -9.4300 Q=    0.4170 A=    0.0000 R=    0.0000 C=    0.0000
 XYZ=   -2.0390  -28.6990   -7.9590 Q=    0.4170 A=    0.0000 R=    0.0000 C=    0.0000
 XYZ=   -3.8471   -6.0381    6.6279 Q=   -0.8340 A=    0.0000 R=    0.0000 C=    0.0000
 XYZ=   -4.4672   -5.3039    6.7816 Q=    0.4170 A=    0.0000 R=    0.0000 C=    0.0000
 XYZ=   -3.5179   -6.2273    7.5247 Q=    0.4170 A=    0.0000 R=    0.0000 C=    0.0000
 XYZ=  -13.4680  -12.0270  -23.1910 Q=   -0.8340 A=    0.0000 R=    0.0000 C=    0.0000
 XYZ=  -14.0470  -12.6070  -22.6960 Q=    0.4170 A=    0.0000 R=    0.0000 C=    0.0000
 XYZ=  -12.6100  -12.4490  -23.1460 Q=    0.4170 A=    0.0000 R=    0.0000 C=    0.0000
 XYZ=   -1.7404  -11.1808   -7.2088 Q=   -0.8340 A=    0.0000 R=    0.0000 C=    0.0000
 XYZ=   -1.5886  -12.1395   -7.0675 Q=    0.4170 A=    0.0000 R=    0.0000 C=    0.0000
 XYZ=   -2.3738  -10.9627   -6.4810 Q=    0.4170 A=    0.0000 R=    0.0000 C=    0.0000
 XYZ=   -6.0942  -17.2511  -14.2460 Q=   -0.8340 A=    0.0000 R=    0.0000 C=    0.0000
 XYZ=   -6.6657  -16.4866  -14.4476 Q=    0.4170 A=    0.0000 R=    0.0000 C=    0.0000
 XYZ=   -6.7247  -17.9712  -14.0517 Q=    0.4170 A=    0.0000 R=    0.0000 C=    0.0000
 XYZ=  -18.4108   -7.0470  -11.2603 Q=   -0.8340 A=    0.0000 R=    0.0000 C=    0.0000
 XYZ=  -18.5149   -7.4540  -12.1450 Q=    0.4170 A=    0.0000 R=    0.0000 C=    0.0000
 XYZ=  -18.1445   -6.1356  -11.5148 Q=    0.4170 A=    0.0000 R=    0.0000 C=    0.0000
 XYZ=  -10.5603    0.4823   -9.3987 Q=   -0.8340 A=    0.0000 R=    0.0000 C=    0.0000
 XYZ=  -10.1537    1.0055   -8.6753 Q=    0.4170 A=    0.0000 R=    0.0000 C=    0.0000
 XYZ=   -9.9132   -0.2480   -9.4635 Q=    0.4170 A=    0.0000 R=    0.0000 C=    0.0000
 XYZ=  -21.7271  -17.6246   -8.9409 Q=   -0.8340 A=    0.0000 R=    0.0000 C=    0.0000
 XYZ=  -20.7850  -17.8855   -8.9584 Q=    0.4170 A=    0.0000 R=    0.0000 C=    0.0000
 XYZ=  -21.6545  -16.6675   -8.7713 Q=    0.4170 A=    0.0000 R=    0.0000 C=    0.0000
 XYZ=   -5.1382  -23.6046    0.6170 Q=   -0.8340 A=    0.0000 R=    0.0000 C=    0.0000
 XYZ=   -4.8961  -24.4452    0.1727 Q=    0.4170 A=    0.0000 R=    0.0000 C=    0.0000
 XYZ=   -5.7804  -23.2139   -0.0082 Q=    0.4170 A=    0.0000 R=    0.0000 C=    0.0000
 XYZ=  -11.8880  -15.4980   11.7450 Q=   -0.8340 A=    0.0000 R=    0.0000 C=    0.0000
 XYZ=  -12.7380  -15.5450   11.3080 Q=    0.4170 A=    0.0000 R=    0.0000 C=    0.0000
 XYZ=  -11.7160  -14.5610   11.8370 Q=    0.4170 A=    0.0000 R=    0.0000 C=    0.0000
 XYZ=    9.7283  -12.1619   -7.4833 Q=   -0.8340 A=    0.0000 R=    0.0000 C=    0.0000
 XYZ=    9.7418  -12.9577   -6.9182 Q=    0.4170 A=    0.0000 R=    0.0000 C=    0.0000
 XYZ=   10.2433  -11.5355   -6.9246 Q=    0.4170 A=    0.0000 R=    0.0000 C=    0.0000
 XYZ=   -2.9130  -20.8798  -13.4007 Q=   -0.8340 A=    0.0000 R=    0.0000 C=    0.0000
 XYZ=   -1.9647  -21.0603  -13.2195 Q=    0.4170 A=    0.0000 R=    0.0000 C=    0.0000
 XYZ=   -2.8409  -19.9404  -13.6851 Q=    0.4170 A=    0.0000 R=    0.0000 C=    0.0000
 XYZ=   -0.0800    2.7290  -16.4170 Q=   -0.8340 A=    0.0000 R=    0.0000 C=    0.0000
 XYZ=    0.8110    2.4130  -16.5680 Q=    0.4170 A=    0.0000 R=    0.0000 C=    0.0000
 XYZ=   -0.0200    3.2370  -15.6080 Q=    0.4170 A=    0.0000 R=    0.0000 C=    0.0000
 XYZ=  -15.5854   -9.2308   -7.9621 Q=   -0.8340 A=    0.0000 R=    0.0000 C=    0.0000
 XYZ=  -14.8215   -9.8429   -8.0389 Q=    0.4170 A=    0.0000 R=    0.0000 C=    0.0000
 XYZ=  -16.2144   -9.7979   -7.4588 Q=    0.4170 A=    0.0000 R=    0.0000 C=    0.0000
 XYZ=   -9.6432  -13.0171    3.2696 Q=   -0.8340 A=    0.0000 R=    0.0000 C=    0.0000
 XYZ=  -10.4080  -12.4051    3.2593 Q=    0.4170 A=    0.0000 R=    0.0000 C=    0.0000
 XYZ=   -9.2432  -12.7910    2.4038 Q=    0.4170 A=    0.0000 R=    0.0000 C=    0.0000
 XYZ=   -6.9900    8.5940  -10.5640 Q=   -0.8340 A=    0.0000 R=    0.0000 C=    0.0000
 XYZ=   -7.2530    7.7260  -10.2590 Q=    0.4170 A=    0.0000 R=    0.0000 C=    0.0000
 XYZ=   -7.7750    8.9510  -10.9790 Q=    0.4170 A=    0.0000 R=    0.0000 C=    0.0000
 XYZ=   -9.4986  -16.1993   -4.6760 Q=   -0.8340 A=    0.0000 R=    0.0000 C=    0.0000
 XYZ=   -9.0917  -16.4560   -3.8216 Q=    0.4170 A=    0.0000 R=    0.0000 C=    0.0000
 XYZ=   -8.6971  -15.9480   -5.1766 Q=    0.4170 A=    0.0000 R=    0.0000 C=    0.0000
 XYZ=   -5.6390  -16.7630   12.5490 Q=   -0.8340 A=    0.0000 R=    0.0000 C=    0.0000
 XYZ=   -5.4510  -16.0280   11.9660 Q=    0.4170 A=    0.0000 R=    0.0000 C=    0.0000
 XYZ=   -4.7780  -17.0980   12.7990 Q=    0.4170 A=    0.0000 R=    0.0000 C=    0.0000
 XYZ=    7.9770   -3.4280    7.8400 Q=   -0.8340 A=    0.0000 R=    0.0000 C=    0.0000
 XYZ=    8.6330   -2.7740    7.6000 Q=    0.4170 A=    0.0000 R=    0.0000 C=    0.0000
 XYZ=    7.5300   -3.6330    7.0190 Q=    0.4170 A=    0.0000 R=    0.0000 C=    0.0000
 XYZ=  -17.1333  -10.1161    6.0278 Q=   -0.8340 A=    0.0000 R=    0.0000 C=    0.0000
 XYZ=  -17.0516  -11.0420    5.7150 Q=    0.4170 A=    0.0000 R=    0.0000 C=    0.0000
 XYZ=  -16.7243   -9.6055    5.2984 Q=    0.4170 A=    0.0000 R=    0.0000 C=    0.0000
 XYZ=  -13.8053   -9.3780    2.8128 Q=   -0.8340 A=    0.0000 R=    0.0000 C=    0.0000
 XYZ=  -14.5776   -9.1345    3.3785 Q=    0.4170 A=    0.0000 R=    0.0000 C=    0.0000
 XYZ=  -13.1977   -8.6479    3.0566 Q=    0.4170 A=    0.0000 R=    0.0000 C=    0.0000
 XYZ=    9.0640  -11.5730    5.2100 Q=   -0.8340 A=    0.0000 R=    0.0000 C=    0.0000
 XYZ=    9.2700  -11.9060    6.0840 Q=    0.4170 A=    0.0000 R=    0.0000 C=    0.0000
 XYZ=    9.2490  -12.3070    4.6240 Q=    0.4170 A=    0.0000 R=    0.0000 C=    0.0000
 XYZ=  -18.5390  -16.0528  -14.6738 Q=   -0.8340 A=    0.0000 R=    0.0000 C=    0.0000
 XYZ=  -18.6767  -15.0811  -14.6288 Q=    0.4170 A=    0.0000 R=    0.0000 C=    0.0000
 XYZ=  -19.3398  -16.3625  -15.1451 Q=    0.4170 A=    0.0000 R=    0.0000 C=    0.0000
 XYZ=   -4.9460    7.1710    1.2470 Q=   -0.8340 A=    0.0000 R=    0.0000 C=    0.0000
 XYZ=   -5.0380    7.0520    2.1920 Q=    0.4170 A=    0.0000 R=    0.0000 C=    0.0000
 XYZ=   -5.6590    7.7640    1.0100 Q=    0.4170 A=    0.0000 R=    0.0000 C=    0.0000
 XYZ=   -1.5510  -17.3058    6.2560 Q=   -0.8340 A=    0.0000 R=    0.0000 C=    0.0000
 XYZ=   -1.2437  -17.4997    5.3512 Q=    0.4170 A=    0.0000 R=    0.0000 C=    0.0000
 XYZ=   -2.2424  -17.9931    6.3231 Q=    0.4170 A=    0.0000 R=    0.0000 C=    0.0000
 XYZ=   10.1910  -18.5640   -8.9970 Q=   -0.8340 A=    0.0000 R=    0.0000 C=    0.0000
 XYZ=   10.2560  -19.2990   -9.6060 Q=    0.4170 A=    0.0000 R=    0.0000 C=    0.0000
 XYZ=    9.6800  -17.9060   -9.4680 Q=    0.4170 A=    0.0000 R=    0.0000 C=    0.0000
 XYZ=   -4.7980   -4.5460   14.4130 Q=   -0.8340 A=    0.0000 R=    0.0000 C=    0.0000
 XYZ=   -5.0430   -5.0620   15.1810 Q=    0.4170 A=    0.0000 R=    0.0000 C=    0.0000
 XYZ=   -4.5650   -5.1970   13.7510 Q=    0.4170 A=    0.0000 R=    0.0000 C=    0.0000
 XYZ=   -3.9017   -8.8040  -21.7840 Q=   -0.8340 A=    0.0000 R=    0.0000 C=    0.0000
 XYZ=   -3.5667   -9.4161  -21.1288 Q=    0.4170 A=    0.0000 R=    0.0000 C=    0.0000
 XYZ=   -3.2649   -8.0894  -21.7926 Q=    0.4170 A=    0.0000 R=    0.0000 C=    0.0000
 XYZ=  -25.9690  -18.4970   -1.7330 Q=   -0.8340 A=    0.0000 R=    0.0000 C=    0.0000
 XYZ=  -26.2680  -18.2900   -2.6180 Q=    0.4170 A=    0.0000 R=    0.0000 C=    0.0000
 XYZ=  -25.1230  -18.0560   -1.6570 Q=    0.4170 A=    0.0000 R=    0.0000 C=    0.0000
 XYZ=  -15.5971   -3.4404   -7.1751 Q=   -0.8340 A=    0.0000 R=    0.0000 C=    0.0000
 XYZ=  -15.6850   -3.7368   -8.1038 Q=    0.4170 A=    0.0000 R=    0.0000 C=    0.0000
 XYZ=  -14.7099   -3.0269   -7.1947 Q=    0.4170 A=    0.0000 R=    0.0000 C=    0.0000
 XYZ=  -25.1130  -15.3660   -0.8340 Q=   -0.8340 A=    0.0000 R=    0.0000 C=    0.0000
 XYZ=  -25.4190  -15.7920   -1.6350 Q=    0.4170 A=    0.0000 R=    0.0000 C=    0.0000
 XYZ=  -25.1990  -16.0380   -0.1570 Q=    0.4170 A=    0.0000 R=    0.0000 C=    0.0000
 XYZ=   -7.6871  -19.7080  -16.2277 Q=   -0.8340 A=    0.0000 R=    0.0000 C=    0.0000
 XYZ=   -6.9390  -19.3102  -16.6947 Q=    0.4170 A=    0.0000 R=    0.0000 C=    0.0000
 XYZ=   -7.3772  -19.6891  -15.2945 Q=    0.4170 A=    0.0000 R=    0.0000 C=    0.0000
 XYZ=  -11.2274   -0.3910   -4.7324 Q=   -0.8340 A=    0.0000 R=    0.0000 C=    0.0000
 XYZ=  -10.5560   -0.9323   -5.1900 Q=    0.4170 A=    0.0000 R=    0.0000 C=    0.0000
 XYZ=  -11.8757   -1.0796   -4.4810 Q=    0.4170 A=    0.0000 R=    0.0000 C=    0.0000
 XYZ=    1.5263   -0.3963  -10.8257 Q=   -0.8340 A=    0.0000 R=    0.0000 C=    0.0000
 XYZ=    0.6122   -0.3973  -11.1927 Q=    0.4170 A=    0.0000 R=    0.0000 C=    0.0000
 XYZ=    1.6831    0.5785  -10.8369 Q=    0.4170 A=    0.0000 R=    0.0000 C=    0.0000
 XYZ=   -5.1325    5.6886   -3.1454 Q=   -0.8340 A=    0.0000 R=    0.0000 C=    0.0000
 XYZ=   -4.3002    5.1946   -2.9971 Q=    0.4170 A=    0.0000 R=    0.0000 C=    0.0000
 XYZ=   -5.7840    4.9579   -3.0677 Q=    0.4170 A=    0.0000 R=    0.0000 C=    0.0000
 XYZ=    5.3170    0.2840  -16.9880 Q=   -0.8340 A=    0.0000 R=    0.0000 C=    0.0000
 XYZ=    4.5690    0.8710  -17.1010 Q=    0.4170 A=    0.0000 R=    0.0000 C=    0.0000
 XYZ=    5.8920    0.7440  -16.3760 Q=    0.4170 A=    0.0000 R=    0.0000 C=    0.0000
 XYZ=   -9.8520    8.8440    1.8950 Q=   -0.8340 A=    0.0000 R=    0.0000 C=    0.0000
 XYZ=  -10.7200    9.0520    2.2430 Q=    0.4170 A=    0.0000 R=    0.0000 C=    0.0000
 XYZ=   -9.8490    7.8910    1.8120 Q=    0.4170 A=    0.0000 R=    0.0000 C=    0.0000
 XYZ=  -18.8466  -22.1459   -7.9884 Q=   -0.8340 A=    0.0000 R=    0.0000 C=    0.0000
 XYZ=  -18.8937  -21.5713   -7.2244 Q=    0.4170 A=    0.0000 R=    0.0000 C=    0.0000
 XYZ=  -19.7592  -22.3532   -8.1895 Q=    0.4170 A=    0.0000 R=    0.0000 C=    0.0000
 XYZ=    0.9530   -4.3560   11.4070 Q=   -0.8340 A=    0.0000 R=    0.0000 C=    0.0000
 XYZ=    0.8480   -3.4320   11.1790 Q=    0.4170 A=    0.0000 R=    0.0000 C=    0.0000
 XYZ=    1.6480   -4.3630   12.0650 Q=    0.4170 A=    0.0000 R=    0.0000 C=    0.0000
 XYZ=   -0.7826    0.8502    1.1704 Q=   -0.8340 A=    0.0000 R=    0.0000 C=    0.0000
 XYZ=   -1.0373    0.7842    2.1202 Q=    0.4170 A=    0.0000 R=    0.0000 C=    0.0000
 XYZ=   -1.3513    1.6145    0.9098 Q=    0.4170 A=    0.0000 R=    0.0000 C=    0.0000
 XYZ=  -19.4450  -19.8340  -18.6330 Q=   -0.8340 A=    0.0000 R=    0.0000 C=    0.0000
 XYZ=  -18.9380  -19.1450  -18.2030 Q=    0.4170 A=    0.0000 R=    0.0000 C=    0.0000
 XYZ=  -20.3540  -19.6420  -18.4030 Q=    0.4170 A=    0.0000 R=    0.0000 C=    0.0000
 XYZ=  -16.8223  -16.7883  -10.7649 Q=   -0.8340 A=    0.0000 R=    0.0000 C=    0.0000
 XYZ=  -16.5407  -17.7204  -10.8416 Q=    0.4170 A=    0.0000 R=    0.0000 C=    0.0000
 XYZ=  -16.1370  -16.3187  -11.2856 Q=    0.4170 A=    0.0000 R=    0.0000 C=    0.0000
 XYZ=   -4.2225    0.3857  -10.1733 Q=   -0.8340 A=    0.0000 R=    0.0000 C=    0.0000
 XYZ=   -5.1543    0.1183  -10.2965 Q=    0.4170 A=    0.0000 R=    0.0000 C=    0.0000
 XYZ=   -4.2855    1.3283  -10.4197 Q=    0.4170 A=    0.0000 R=    0.0000 C=    0.0000
 XYZ=  -22.2917   -6.6306   -7.8004 Q=   -0.8340 A=    0.0000 R=    0.0000 C=    0.0000
 XYZ=  -21.9453   -6.5544   -6.8915 Q=    0.4170 A=    0.0000 R=    0.0000 C=    0.0000
 XYZ=  -21.5114   -7.0065   -8.2556 Q=    0.4170 A=    0.0000 R=    0.0000 C=    0.0000
 XYZ=   10.4640   -3.2980  -17.0380 Q=   -0.8340 A=    0.0000 R=    0.0000 C=    0.0000
 XYZ=    9.9960   -2.6400  -16.5240 Q=    0.4170 A=    0.0000 R=    0.0000 C=    0.0000
 XYZ=    9.8830   -4.0590  -17.0390 Q=    0.4170 A=    0.0000 R=    0.0000 C=    0.0000
 XYZ=  -14.0284  -14.9346    5.0262 Q=   -0.8340 A=    0.0000 R=    0.0000 C=    0.0000
 XYZ=  -14.5623  -15.4926    4.4271 Q=    0.4170 A=    0.0000 R=    0.0000 C=    0.0000
 XYZ=  -13.5245  -14.4374    4.3458 Q=    0.4170 A=    0.0000 R=    0.0000 C=    0.0000
 XYZ=   -7.4894    4.9350   -6.2901 Q=   -0.8340 A=    0.0000 R=    0.0000 C=    0.0000
 XYZ=   -6.9330    4.1238   -6.2607 Q=    0.4170 A=    0.0000 R=    0.0000 C=    0.0000
 XYZ=   -8.0204    4.8179   -5.4751 Q=    0.4170 A=    0.0000 R=    0.0000 C=    0.0000
 XYZ=    0.4480  -27.6550    4.3590 Q=   -0.8340 A=    0.0000 R=    0.0000 C=    0.0000
 XYZ=    0.0130  -28.5030    4.2820 Q=    0.4170 A=    0.0000 R=    0.0000 C=    0.0000
 XYZ=    0.1600  -27.1660    3.5880 Q=    0.4170 A=    0.0000 R=    0.0000 C=    0.0000
 XYZ=   -0.8670   -3.3690  -22.8590 Q=   -0.8340 A=    0.0000 R=    0.0000 C=    0.0000
 XYZ=   -0.3210   -2.8350  -23.4360 Q=    0.4170 A=    0.0000 R=    0.0000 C=    0.0000
 XYZ=   -0.3130   -4.1140  -22.6260 Q=    0.4170 A=    0.0000 R=    0.0000 C=    0.0000
 XYZ=   -5.3012   -4.8623    3.4812 Q=   -0.8340 A=    0.0000 R=    0.0000 C=    0.0000
 XYZ=   -6.2013   -5.1592    3.2194 Q=    0.4170 A=    0.0000 R=    0.0000 C=    0.0000
 XYZ=   -5.0017   -4.5021    2.6158 Q=    0.4170 A=    0.0000 R=    0.0000 C=    0.0000
 XYZ=  -21.3850   -1.0290    5.9340 Q=   -0.8340 A=    0.0000 R=    0.0000 C=    0.0000
 XYZ=  -20.4790   -0.9550    5.6330 Q=    0.4170 A=    0.0000 R=    0.0000 C=    0.0000
 XYZ=  -21.3280   -0.9590    6.8870 Q=    0.4170 A=    0.0000 R=    0.0000 C=    0.0000
 XYZ=    1.7761  -18.6315   -2.3559 Q=   -0.8340 A=    0.0000 R=    0.0000 C=    0.0000
 XYZ=    2.0240  -18.8607   -3.2723 Q=    0.4170 A=    0.0000 R=    0.0000 C=    0.0000
 XYZ=    0.8180  -18.8102   -2.3980 Q=    0.4170 A=    0.0000 R=    0.0000 C=    0.0000
 XYZ=   -1.0770  -10.5884    6.6416 Q=   -0.8340 A=    0.0000 R=    0.0000 C=    0.0000
 XYZ=   -0.7895  -10.4424    5.7160 Q=    0.4170 A=    0.0000 R=    0.0000 C=    0.0000
 XYZ=   -1.0358  -11.5657    6.6952 Q=    0.4170 A=    0.0000 R=    0.0000 C=    0.0000
 XYZ=    9.9160  -17.2030  -17.4370 Q=   -0.8340 A=    0.0000 R=    0.0000 C=    0.0000
 XYZ=   10.5000  -17.1530  -16.6800 Q=    0.4170 A=    0.0000 R=    0.0000 C=    0.0000
 XYZ=   10.4710  -17.5260  -18.1470 Q=    0.4170 A=    0.0000 R=    0.0000 C=    0.0000
 XYZ=    0.7539  -10.1872   -7.7067 Q=   -0.8340 A=    0.0000 R=    0.0000 C=    0.0000
 XYZ=   -0.1302  -10.6161   -7.6402 Q=    0.4170 A=    0.0000 R=    0.0000 C=    0.0000
 XYZ=    1.1579  -10.4904   -6.8652 Q=    0.4170 A=    0.0000 R=    0.0000 C=    0.0000
 XYZ=  -13.3160   -3.8391   -0.3981 Q=   -0.8340 A=    0.0000 R=    0.0000 C=    0.0000
 XYZ=  -13.7362   -3.2411   -1.0409 Q=    0.4170 A=    0.0000 R=    0.0000 C=    0.0000
 XYZ=  -13.4481   -3.3362    0.4328 Q=    0.4170 A=    0.0000 R=    0.0000 C=    0.0000
 XYZ=    2.5280   -0.2490    9.9690 Q=   -0.8340 A=    0.0000 R=    0.0000 C=    0.0000
 XYZ=    3.3950   -0.6560    9.9690 Q=    0.4170 A=    0.0000 R=    0.0000 C=    0.0000
 XYZ=    2.6960    0.6730    9.7720 Q=    0.4170 A=    0.0000 R=    0.0000 C=    0.0000
 XYZ=    6.5970  -12.4080   12.0930 Q=   -0.8340 A=    0.0000 R=    0.0000 C=    0.0000
 XYZ=    5.8020  -12.6770   11.6310 Q=    0.4170 A=    0.0000 R=    0.0000 C=    0.0000
 XYZ=    6.3300  -12.3380   13.0090 Q=    0.4170 A=    0.0000 R=    0.0000 C=    0.0000
 XYZ=  -22.6540   -5.9510    3.8400 Q=   -0.8340 A=    0.0000 R=    0.0000 C=    0.0000
 XYZ=  -22.2600   -6.6000    3.2570 Q=    0.4170 A=    0.0000 R=    0.0000 C=    0.0000
 XYZ=  -22.1030   -5.1750    3.7420 Q=    0.4170 A=    0.0000 R=    0.0000 C=    0.0000
 XYZ=   10.9000  -23.7710  -10.1260 Q=   -0.8340 A=    0.0000 R=    0.0000 C=    0.0000
 XYZ=   10.5590  -23.1230   -9.5100 Q=    0.4170 A=    0.0000 R=    0.0000 C=    0.0000
 XYZ=   11.8490  -23.7350  -10.0110 Q=    0.4170 A=    0.0000 R=    0.0000 C=    0.0000
 XYZ=  -21.4291   -7.9828  -12.6368 Q=   -0.8340 A=    0.0000 R=    0.0000 C=    0.0000
 XYZ=  -21.9836   -8.5343  -13.1886 Q=    0.4170 A=    0.0000 R=    0.0000 C=    0.0000
 XYZ=  -20.5406   -8.1400  -12.9562 Q=    0.4170 A=    0.0000 R=    0.0000 C=    0.0000
 XYZ=  -19.2101  -12.7293  -11.7016 Q=   -0.8340 A=    0.0000 R=    0.0000 C=    0.0000
 XYZ=  -19.5867  -12.3363  -10.8798 Q=    0.4170 A=    0.0000 R=    0.0000 C=    0.0000
 XYZ=  -18.2839  -12.4190  -11.5955 Q=    0.4170 A=    0.0000 R=    0.0000 C=    0.0000
 XYZ=   -2.8539    1.4007   -3.6149 Q=   -0.8340 A=    0.0000 R=    0.0000 C=    0.0000
 XYZ=   -2.8913    0.9073   -4.4632 Q=    0.4170 A=    0.0000 R=    0.0000 C=    0.0000
 XYZ=   -1.9833    1.0848   -3.2914 Q=    0.4170 A=    0.0000 R=    0.0000 C=    0.0000
 XYZ=   -1.8310   -1.0780  -21.3540 Q=   -0.8340 A=    0.0000 R=    0.0000 C=    0.0000
 XYZ=   -1.0370   -0.5570  -21.4780 Q=    0.4170 A=    0.0000 R=    0.0000 C=    0.0000
 XYZ=   -1.7630   -1.7770  -22.0030 Q=    0.4170 A=    0.0000 R=    0.0000 C=    0.0000
 XYZ=  -19.6120  -22.3050  -15.9660 Q=   -0.8340 A=    0.0000 R=    0.0000 C=    0.0000
 XYZ=  -18.8090  -22.7630  -16.2180 Q=    0.4170 A=    0.0000 R=    0.0000 C=    0.0000
 XYZ=  -19.3160  -21.4380  -15.6900 Q=    0.4170 A=    0.0000 R=    0.0000 C=    0.0000
 XYZ=  -11.9291  -21.3614  -15.9436 Q=   -0.8340 A=    0.0000 R=    0.0000 C=    0.0000
 XYZ=  -10.9682  -21.4412  -16.1280 Q=    0.4170 A=    0.0000 R=    0.0000 C=    0.0000
 XYZ=  -12.0541  -22.1886  -15.4390 Q=    0.4170 A=    0.0000 R=    0.0000 C=    0.0000
 XYZ=   -7.9030  -12.4850  -22.8610 Q=   -0.8340 A=    0.0000 R=    0.0000 C=    0.0000
 XYZ=   -7.3680  -12.7750  -23.6010 Q=    0.4170 A=    0.0000 R=    0.0000 C=    0.0000
 XYZ=   -7.3960  -12.7330  -22.0880 Q=    0.4170 A=    0.0000 R=    0.0000 C=    0.0000
 XYZ=  -15.6422   -0.7701  -14.6100 Q=   -0.8340 A=    0.0000 R=    0.0000 C=    0.0000
 XYZ=  -14.8873   -0.7307  -15.2228 Q=    0.4170 A=    0.0000 R=    0.0000 C=    0.0000
 XYZ=  -15.2025   -1.1878  -13.8434 Q=    0.4170 A=    0.0000 R=    0.0000 C=    0.0000
 XYZ=   -5.0380  -24.7297    3.0972 Q=   -0.8340 A=    0.0000 R=    0.0000 C=    0.0000
 XYZ=   -5.2078  -24.2729    2.2438 Q=    0.4170 A=    0.0000 R=    0.0000 C=    0.0000
 XYZ=   -5.9471  -24.9727    3.3542 Q=    0.4170 A=    0.0000 R=    0.0000 C=    0.0000
 XYZ=    0.3710    4.8080  -13.5320 Q=   -0.8340 A=    0.0000 R=    0.0000 C=    0.0000
 XYZ=    0.8550    5.2820  -14.2080 Q=    0.4170 A=    0.0000 R=    0.0000 C=    0.0000
 XYZ=   -0.5490    4.9300  -13.7650 Q=    0.4170 A=    0.0000 R=    0.0000 C=    0.0000
 XYZ=    4.1835   -8.0110    1.7533 Q=   -0.8340 A=    0.0000 R=    0.0000 C=    0.0000
 XYZ=    4.8064   -7.3091    2.0225 Q=    0.4170 A=    0.0000 R=    0.0000 C=    0.0000
 XYZ=    4.3315   -8.6772    2.4589 Q=    0.4170 A=    0.0000 R=    0.0000 C=    0.0000
 XYZ=  -11.7170  -15.1930  -22.4150 Q=   -0.8340 A=    0.0000 R=    0.0000 C=    0.0000
 XYZ=  -10.8950  -15.6220  -22.1770 Q=    0.4170 A=    0.0000 R=    0.0000 C=    0.0000
 XYZ=  -11.4520  -14.3420  -22.7650 Q=    0.4170 A=    0.0000 R=    0.0000 C=    0.0000
 XYZ=    1.6120    1.6970    4.6020 Q=   -0.8340 A=    0.0000 R=    0.0000 C=    0.0000
 XYZ=    0.9040    2.2290    4.2400 Q=    0.4170 A=    0.0000 R=    0.0000 C=    0.0000
 XYZ=    2.3960    1.9920    4.1390 Q=    0.4170 A=    0.0000 R=    0.0000 C=    0.0000
 XYZ=   -8.3740  -28.0310   -8.1660 Q=   -0.8340 A=    0.0000 R=    0.0000 C=    0.0000
 XYZ=   -8.5540  -28.9650   -8.2740 Q=    0.4170 A=    0.0000 R=    0.0000 C=    0.0000
 XYZ=   -8.1760  -27.7210   -9.0500 Q=    0.4170 A=    0.0000 R=    0.0000 C=    0.0000
 XYZ=    2.6417  -14.6453   -4.1248 Q=   -0.8340 A=    0.0000 R=    0.0000 C=    0.0000
 XYZ=    1.8293  -15.1352   -4.3925 Q=    0.4170 A=    0.0000 R=    0.0000 C=    0.0000
 XYZ=    2.9532  -15.2164   -3.3891 Q=    0.4170 A=    0.0000 R=    0.0000 C=    0.0000
 XYZ=  -25.3650   -8.8600   -6.2720 Q=   -0.8340 A=    0.0000 R=    0.0000 C=    0.0000
 XYZ=  -25.4420   -7.9900   -5.8800 Q=    0.4170 A=    0.0000 R=    0.0000 C=    0.0000
 XYZ=  -26.1970   -8.9930   -6.7260 Q=    0.4170 A=    0.0000 R=    0.0000 C=    0.0000
 XYZ=  -19.3960  -16.6070    9.0060 Q=   -0.8340 A=    0.0000 R=    0.0000 C=    0.0000
 XYZ=  -19.8660  -15.9520    9.5210 Q=    0.4170 A=    0.0000 R=    0.0000 C=    0.0000
 XYZ=  -19.2530  -17.3330    9.6130 Q=    0.4170 A=    0.0000 R=    0.0000 C=    0.0000
 XYZ=    2.5652  -11.7119  -16.5800 Q=   -0.8340 A=    0.0000 R=    0.0000 C=    0.0000
 XYZ=    3.2684  -11.5312  -17.2387 Q=    0.4170 A=    0.0000 R=    0.0000 C=    0.0000
 XYZ=    2.7762  -11.0874  -15.8679 Q=    0.4170 A=    0.0000 R=    0.0000 C=    0.0000
 XYZ=    7.6693  -18.8412  -12.1548 Q=   -0.8340 A=    0.0000 R=    0.0000 C=    0.0000
 XYZ=    8.3332  -19.5536  -12.1363 Q=    0.4170 A=    0.0000 R=    0.0000 C=    0.0000
 XYZ=    7.3543  -18.8408  -11.2224 Q=    0.4170 A=    0.0000 R=    0.0000 C=    0.0000
 XYZ=  -11.5605   -4.6412  -19.2430 Q=   -0.8340 A=    0.0000 R=    0.0000 C=    0.0000
 XYZ=  -12.0415   -5.3478  -18.8123 Q=    0.4170 A=    0.0000 R=    0.0000 C=    0.0000
 XYZ=  -12.1276   -3.8753  -19.1533 Q=    0.4170 A=    0.0000 R=    0.0000 C=    0.0000
 XYZ=  -15.9517   -7.1385  -16.8737 Q=   -0.8340 A=    0.0000 R=    0.0000 C=    0.0000
 XYZ=  -16.5865   -6.4628  -17.1608 Q=    0.4170 A=    0.0000 R=    0.0000 C=    0.0000
 XYZ=  -15.8630   -6.9340  -15.9174 Q=    0.4170 A=    0.0000 R=    0.0000 C=    0.0000
 XYZ=    1.3090    6.4170  -15.4410 Q=   -0.8340 A=    0.0000 R=    0.0000 C=    0.0000
 XYZ=    2.2140    6.1390  -15.5840 Q=    0.4170 A=    0.0000 R=    0.0000 C=    0.0000
 XYZ=    0.9860    6.6390  -16.3150 Q=    0.4170 A=    0.0000 R=    0.0000 C=    0.0000
 XYZ=  -10.3324    3.4868    2.4877 Q=   -0.8340 A=    0.0000 R=    0.0000 C=    0.0000
 XYZ=   -9.4146    3.6502    2.7049 Q=    0.4170 A=    0.0000 R=    0.0000 C=    0.0000
 XYZ=  -10.5702    2.7214    3.0111 Q=    0.4170 A=    0.0000 R=    0.0000 C=    0.0000
 XYZ=  -15.4610  -21.2570    4.8910 Q=   -0.8340 A=    0.0000 R=    0.0000 C=    0.0000
 XYZ=  -15.3080  -20.3370    5.1070 Q=    0.4170 A=    0.0000 R=    0.0000 C=    0.0000
 XYZ=  -15.5640  -21.6890    5.7390 Q=    0.4170 A=    0.0000 R=    0.0000 C=    0.0000
 XYZ=   -5.6640    1.0465   -3.5340 Q=   -0.8340 A=    0.0000 R=    0.0000 C=    0.0000
 XYZ=   -4.7667    1.2775   -3.8387 Q=    0.4170 A=    0.0000 R=    0.0000 C=    0.0000
 XYZ=   -5.4330    0.6756   -2.6583 Q=    0.4170 A=    0.0000 R=    0.0000 C=    0.0000
 XYZ=   -0.7239  -12.3103    9.8992 Q=   -0.8340 A=    0.0000 R=    0.0000 C=    0.0000
 XYZ=   -0.9480  -12.6602   10.7615 Q=    0.4170 A=    0.0000 R=    0.0000 C=    0.0000
 XYZ=   -1.4140  -11.6740    9.7116 Q=    0.4170 A=    0.0000 R=    0.0000 C=    0.0000
 XYZ=  -15.9040   -8.3980    4.2478 Q=   -0.8340 A=    0.0000 R=    0.0000 C=    0.0000
 XYZ=  -16.5255   -8.0579    3.5678 Q=    0.4170 A=    0.0000 R=    0.0000 C=    0.0000
 XYZ=  -15.8031   -7.6048    4.8280 Q=    0.4170 A=    0.0000 R=    0.0000 C=    0.0000
 XYZ=    1.0388   -2.6816   -3.1624 Q=   -0.8340 A=    0.0000 R=    0.0000 C=    0.0000
 XYZ=    0.6958   -3.1091   -2.3514 Q=    0.4170 A=    0.0000 R=    0.0000 C=    0.0000
 XYZ=    0.9305   -3.3773   -3.8325 Q=    0.4170 A=    0.0000 R=    0.0000 C=    0.0000
 XYZ=   -8.4476   -9.4707   -5.4732 Q=   -0.8340 A=    0.0000 R=    0.0000 C=    0.0000
 XYZ=   -8.6352  -10.3421   -5.0716 Q=    0.4170 A=    0.0000 R=    0.0000 C=    0.0000
 XYZ=   -9.1265   -8.9207   -5.0228 Q=    0.4170 A=    0.0000 R=    0.0000 C=    0.0000
 XYZ=    2.8830  -11.8884    2.5385 Q=   -0.8340 A=    0.0000 R=    0.0000 C=    0.0000
 XYZ=    3.1816  -11.0185    2.8868 Q=    0.4170 A=    0.0000 R=    0.0000 C=    0.0000
 XYZ=    3.7530  -12.3503    2.4830 Q=    0.4170 A=    0.0000 R=    0.0000 C=    0.0000
 XYZ=  -15.6600   -5.1578   -2.2786 Q=   -0.8340 A=    0.0000 R=    0.0000 C=    0.0000
 XYZ=  -15.6211   -5.2101   -3.2595 Q=    0.4170 A=    0.0000 R=    0.0000 C=    0.0000
 XYZ=  -15.4224   -4.2185   -2.1574 Q=    0.4170 A=    0.0000 R=    0.0000 C=    0.0000
 XYZ=   -9.7902   -6.1162    4.4707 Q=   -0.8340 A=    0.0000 R=    0.0000 C=    0.0000
 XYZ=   -9.5557   -6.4570    5.3618 Q=    0.4170 A=    0.0000 R=    0.0000 C=    0.0000
 XYZ=   -9.9492   -5.1682    4.6780 Q=    0.4170 A=    0.0000 R=    0.0000 C=    0.0000
 XYZ=   -5.5555   -3.8474    6.0045 Q=   -0.8340 A=    0.0000 R=    0.0000 C=    0.0000
 XYZ=   -5.4327   -4.2963    5.1408 Q=    0.4170 A=    0.0000 R=    0.0000 C=    0.0000
 XYZ=   -6.3436   -3.3113    5.7950 Q=    0.4170 A=    0.0000 R=    0.0000 C=    0.0000
 XYZ=  -17.4910  -15.4660   12.6730 Q=   -0.8340 A=    0.0000 R=    0.0000 C=    0.0000
 XYZ=  -16.7190  -15.7240   12.1700 Q=    0.4170 A=    0.0000 R=    0.0000 C=    0.0000
 XYZ=  -17.5990  -14.5340   12.4870 Q=    0.4170 A=    0.0000 R=    0.0000 C=    0.0000
 XYZ=   -8.6000    0.1760   10.7290 Q=   -0.8340 A=    0.0000 R=    0.0000 C=    0.0000
 XYZ=   -8.4150   -0.6320   11.2070 Q=    0.4170 A=    0.0000 R=    0.0000 C=    0.0000
 XYZ=   -9.5520    0.2650   10.7670 Q=    0.4170 A=    0.0000 R=    0.0000 C=    0.0000
 XYZ=    6.0930   -3.7030    5.7490 Q=   -0.8340 A=    0.0000 R=    0.0000 C=    0.0000
 XYZ=    5.1680   -3.9240    5.8550 Q=    0.4170 A=    0.0000 R=    0.0000 C=    0.0000
 XYZ=    6.1690   -3.4210    4.8370 Q=    0.4170 A=    0.0000 R=    0.0000 C=    0.0000
 XYZ=  -17.5930    0.9160    2.9500 Q=   -0.8340 A=    0.0000 R=    0.0000 C=    0.0000
 XYZ=  -18.2470    0.3290    2.5710 Q=    0.4170 A=    0.0000 R=    0.0000 C=    0.0000
 XYZ=  -16.7980    0.7490    2.4430 Q=    0.4170 A=    0.0000 R=    0.0000 C=    0.0000
 XYZ=  -19.5670   -0.6120    1.9540 Q=   -0.8340 A=    0.0000 R=    0.0000 C=    0.0000
 XYZ=  -20.3530   -0.2250    2.3390 Q=    0.4170 A=    0.0000 R=    0.0000 C=    0.0000
 XYZ=  -19.6400   -1.5470    2.1450 Q=    0.4170 A=    0.0000 R=    0.0000 C=    0.0000
 XYZ=    1.4040  -21.4300    9.6810 Q=   -0.8340 A=    0.0000 R=    0.0000 C=    0.0000
 XYZ=    0.6470  -21.9580    9.9350 Q=    0.4170 A=    0.0000 R=    0.0000 C=    0.0000
 XYZ=    1.0260  -20.6310    9.3130 Q=    0.4170 A=    0.0000 R=    0.0000 C=    0.0000
 XYZ=   -2.0240  -26.0070    5.4800 Q=   -0.8340 A=    0.0000 R=    0.0000 C=    0.0000
 XYZ=   -1.2350  -25.4790    5.6040 Q=    0.4170 A=    0.0000 R=    0.0000 C=    0.0000
 XYZ=   -2.5400  -25.5200    4.8380 Q=    0.4170 A=    0.0000 R=    0.0000 C=    0.0000
 XYZ=  -10.0860  -23.8170    7.2300 Q=   -0.8340 A=    0.0000 R=    0.0000 C=    0.0000
 XYZ=  -10.7560  -23.9360    6.5570 Q=    0.4170 A=    0.0000 R=    0.0000 C=    0.0000
 XYZ=   -9.5910  -23.0490    6.9440 Q=    0.4170 A=    0.0000 R=    0.0000 C=    0.0000
 XYZ=   -3.3370   -2.0370   13.9800 Q=   -0.8340 A=    0.0000 R=    0.0000 C=    0.0000
 XYZ=   -3.3660   -2.9850   14.1100 Q=    0.4170 A=    0.0000 R=    0.0000 C=    0.0000
 XYZ=   -4.1360   -1.8370   13.4910 Q=    0.4170 A=    0.0000 R=    0.0000 C=    0.0000
 XYZ=  -21.0540   -8.0352   -3.2979 Q=   -0.8340 A=    0.0000 R=    0.0000 C=    0.0000
 XYZ=  -20.5469   -8.7752   -3.6701 Q=    0.4170 A=    0.0000 R=    0.0000 C=    0.0000
 XYZ=  -21.9147   -8.4589   -3.1168 Q=    0.4170 A=    0.0000 R=    0.0000 C=    0.0000
 XYZ=   -4.1480    2.7410  -18.7640 Q=   -0.8340 A=    0.0000 R=    0.0000 C=    0.0000
 XYZ=   -3.7730    1.9060  -19.0450 Q=    0.4170 A=    0.0000 R=    0.0000 C=    0.0000
 XYZ=   -5.0790    2.6680  -18.9720 Q=    0.4170 A=    0.0000 R=    0.0000 C=    0.0000
 XYZ=    3.9840  -29.0590   -1.9990 Q=   -0.8340 A=    0.0000 R=    0.0000 C=    0.0000
 XYZ=    4.2030  -29.2690   -1.0910 Q=    0.4170 A=    0.0000 R=    0.0000 C=    0.0000
 XYZ=    3.1010  -28.6910   -1.9530 Q=    0.4170 A=    0.0000 R=    0.0000 C=    0.0000
 XYZ=   -7.2494   -9.2411   -1.3322 Q=   -0.8340 A=    0.0000 R=    0.0000 C=    0.0000
 XYZ=   -6.7197   -8.7110   -1.9703 Q=    0.4170 A=    0.0000 R=    0.0000 C=    0.0000
 XYZ=   -7.0965  -10.1482   -1.6683 Q=    0.4170 A=    0.0000 R=    0.0000 C=    0.0000
 XYZ=  -20.2620  -12.1820   10.5730 Q=   -0.8340 A=    0.0000 R=    0.0000 C=    0.0000
 XYZ=  -19.6420  -11.4660   10.4320 Q=    0.4170 A=    0.0000 R=    0.0000 C=    0.0000
 XYZ=  -21.0360  -11.9310   10.0690 Q=    0.4170 A=    0.0000 R=    0.0000 C=    0.0000
 XYZ=    0.6780  -10.3710   15.2920 Q=   -0.8340 A=    0.0000 R=    0.0000 C=    0.0000
 XYZ=    1.1940   -9.7400   14.7890 Q=    0.4170 A=    0.0000 R=    0.0000 C=    0.0000
 XYZ=   -0.0710  -10.5700   14.7300 Q=    0.4170 A=    0.0000 R=    0.0000 C=    0.0000
 XYZ=   -2.6820    7.1950  -14.2660 Q=   -0.8340 A=    0.0000 R=    0.0000 C=    0.0000
 XYZ=   -2.3240    7.6690  -13.5150 Q=    0.4170 A=    0.0000 R=    0.0000 C=    0.0000
 XYZ=   -2.6120    7.8110  -14.9950 Q=    0.4170 A=    0.0000 R=    0.0000 C=    0.0000
 XYZ=   -2.5120    5.6755    0.4693 Q=   -0.8340 A=    0.0000 R=    0.0000 C=    0.0000
 XYZ=   -3.2306    5.8909    1.0638 Q=    0.4170 A=    0.0000 R=    0.0000 C=    0.0000
 XYZ=   -2.6068    6.2933   -0.2556 Q=    0.4170 A=    0.0000 R=    0.0000 C=    0.0000
 XYZ=  -21.0490    4.3520   -5.4650 Q=   -0.8340 A=    0.0000 R=    0.0000 C=    0.0000
 XYZ=  -21.4380    4.5330   -4.6090 Q=    0.4170 A=    0.0000 R=    0.0000 C=    0.0000
 XYZ=  -21.2240    3.4240   -5.6170 Q=    0.4170 A=    0.0000 R=    0.0000 C=    0.0000
 XYZ=    4.6680   -3.0370  -21.6000 Q=   -0.8340 A=    0.0000 R=    0.0000 C=    0.0000
 XYZ=    4.7620   -3.9880  -21.6580 Q=    0.4170 A=    0.0000 R=    0.0000 C=    0.0000
 XYZ=    4.9800   -2.8180  -20.7220 Q=    0.4170 A=    0.0000 R=    0.0000 C=    0.0000
 XYZ=  -12.9690   -4.6825  -10.5798 Q=   -0.8340 A=    0.0000 R=    0.0000 C=    0.0000
 XYZ=  -13.7859   -4.4410  -10.1172 Q=    0.4170 A=    0.0000 R=    0.0000 C=    0.0000
 XYZ=  -13.3397   -4.8511  -11.4702 Q=    0.4170 A=    0.0000 R=    0.0000 C=    0.0000
 XYZ=  -23.3730  -19.8920   -9.9050 Q=   -0.8340 A=    0.0000 R=    0.0000 C=    0.0000
 XYZ=  -22.5640  -20.4030   -9.8870 Q=    0.4170 A=    0.0000 R=    0.0000 C=    0.0000
 XYZ=  -23.1410  -19.0600   -9.4920 Q=    0.4170 A=    0.0000 R=    0.0000 C=    0.0000
 XYZ=    0.4110   -9.3769  -14.7713 Q=   -0.8340 A=    0.0000 R=    0.0000 C=    0.0000
 XYZ=    0.4048   -8.4603  -14.4262 Q=    0.4170 A=    0.0000 R=    0.0000 C=    0.0000
 XYZ=    1.3431   -9.6277  -14.5993 Q=    0.4170 A=    0.0000 R=    0.0000 C=    0.0000
 XYZ=  -10.9521  -10.3238    0.2486 Q=   -0.8340 A=    0.0000 R=    0.0000 C=    0.0000
 XYZ=  -10.7827  -10.1189   -0.6956 Q=    0.4170 A=    0.0000 R=    0.0000 C=    0.0000
 XYZ=  -10.9996   -9.4173    0.6224 Q=    0.4170 A=    0.0000 R=    0.0000 C=    0.0000
 XYZ=   -8.1880  -28.0300    0.0020 Q=   -0.8340 A=    0.0000 R=    0.0000 C=    0.0000
 XYZ=   -8.2620  -27.0780    0.0610 Q=    0.4170 A=    0.0000 R=    0.0000 C=    0.0000
 XYZ=   -8.6770  -28.3560    0.7570 Q=    0.4170 A=    0.0000 R=    0.0000 C=    0.0000
 XYZ=   -8.3120  -29.6280  -12.9200 Q=   -0.8340 A=    0.0000 R=    0.0000 C=    0.0000
 XYZ=   -8.1490  -30.3970  -13.4670 Q=    0.4170 A=    0.0000 R=    0.0000 C=    0.0000
 XYZ=   -8.4190  -28.9090  -13.5430 Q=    0.4170 A=    0.0000 R=    0.0000 C=    0.0000
 XYZ=  -12.9180    1.6730    7.8890 Q=   -0.8340 A=    0.0000 R=    0.0000 C=    0.0000
 XYZ=  -13.7500    1.9050    8.3020 Q=    0.4170 A=    0.0000 R=    0.0000 C=    0.0000
 XYZ=  -12.9800    2.0320    7.0040 Q=    0.4170 A=    0.0000 R=    0.0000 C=    0.0000
 XYZ=  -23.0290  -13.8960    5.3640 Q=   -0.8340 A=    0.0000 R=    0.0000 C=    0.0000
 XYZ=  -23.7770  -13.9570    4.7700 Q=    0.4170 A=    0.0000 R=    0.0000 C=    0.0000
 XYZ=  -22.8850  -14.7940    5.6620 Q=    0.4170 A=    0.0000 R=    0.0000 C=    0.0000
 XYZ=  -24.3620  -20.6050   -0.0660 Q=   -0.8340 A=    0.0000 R=    0.0000 C=    0.0000
 XYZ=  -23.8680  -20.3730    0.7200 Q=    0.4170 A=    0.0000 R=    0.0000 C=    0.0000
 XYZ=  -24.4960  -19.7730   -0.5190 Q=    0.4170 A=    0.0000 R=    0.0000 C=    0.0000
 XYZ=    7.7152  -21.3942   -5.9600 Q=   -0.8340 A=    0.0000 R=    0.0000 C=    0.0000
 XYZ=    8.0874  -21.3032   -5.0587 Q=    0.4170 A=    0.0000 R=    0.0000 C=    0.0000
 XYZ=    6.7823  -21.1738   -5.7986 Q=    0.4170 A=    0.0000 R=    0.0000 C=    0.0000
 XYZ=  -13.9746    1.3079  -12.6079 Q=   -0.8340 A=    0.0000 R=    0.0000 C=    0.0000
 XYZ=  -14.3691    1.6311  -13.4179 Q=    0.4170 A=    0.0000 R=    0.0000 C=    0.0000
 XYZ=  -13.0315    1.3761  -12.7564 Q=    0.4170 A=    0.0000 R=    0.0000 C=    0.0000
 XYZ=  -14.8580    2.0090  -20.8300 Q=   -0.8340 A=    0.0000 R=    0.0000 C=    0.0000
 XYZ=  -14.0230    1.7280  -21.2040 Q=    0.4170 A=    0.0000 R=    0.0000 C=    0.0000
 XYZ=  -14.6720    2.1420  -19.9010 Q=    0.4170 A=    0.0000 R=    0.0000 C=    0.0000
 XYZ=   -9.9586  -18.6554   -0.4496 Q=   -0.8340 A=    0.0000 R=    0.0000 C=    0.0000
 XYZ=  -10.3451  -18.0711    0.2424 Q=    0.4170 A=    0.0000 R=    0.0000 C=    0.0000
 XYZ=  -10.7937  -18.8946   -0.9166 Q=    0.4170 A=    0.0000 R=    0.0000 C=    0.0000
 XYZ=  -14.8553    0.3885   -5.7223 Q=   -0.8340 A=    0.0000 R=    0.0000 C=    0.0000
 XYZ=  -15.6763    0.7502   -6.1288 Q=    0.4170 A=    0.0000 R=    0.0000 C=    0.0000
 XYZ=  -14.2481    0.3934   -6.4815 Q=    0.4170 A=    0.0000 R=    0.0000 C=    0.0000
 XYZ=  -19.9917  -11.8033   -9.2662 Q=   -0.8340 A=    0.0000 R=    0.0000 C=    0.0000
 XYZ=  -19.4759  -12.3257   -8.6185 Q=    0.4170 A=    0.0000 R=    0.0000 C=    0.0000
 XYZ=  -20.2170  -11.0327   -8.7059 Q=    0.4170 A=    0.0000 R=    0.0000 C=    0.0000
 XYZ=   -2.2690    4.4100  -14.8550 Q=   -0.8340 A=    0.0000 R=    0.0000 C=    0.0000
 XYZ=   -2.4540    4.1560  -15.7600 Q=    0.4170 A=    0.0000 R=    0.0000 C=    0.0000
 XYZ=   -2.4500    5.3500  -14.8280 Q=    0.4170 A=    0.0000 R=    0.0000 C=    0.0000
 XYZ=   -2.7490  -26.2750    2.2870 Q=   -0.8340 A=    0.0000 R=    0.0000 C=    0.0000
 XYZ=   -3.4630  -25.7260    2.6130 Q=    0.4170 A=    0.0000 R=    0.0000 C=    0.0000
 XYZ=   -3.0180  -27.1690    2.4990 Q=    0.4170 A=    0.0000 R=    0.0000 C=    0.0000
 XYZ=   -4.3000  -28.3430    5.8880 Q=   -0.8340 A=    0.0000 R=    0.0000 C=    0.0000
 XYZ=   -5.0030  -27.8190    6.2710 Q=    0.4170 A=    0.0000 R=    0.0000 C=    0.0000
 XYZ=   -3.4970  -27.9740    6.2570 Q=    0.4170 A=    0.0000 R=    0.0000 C=    0.0000
 XYZ=    5.5100   -8.5450   10.7390 Q=   -0.8340 A=    0.0000 R=    0.0000 C=    0.0000
 XYZ=    6.3520   -8.1410   10.9490 Q=    0.4170 A=    0.0000 R=    0.0000 C=    0.0000
 XYZ=    4.8700   -8.0370   11.2380 Q=    0.4170 A=    0.0000 R=    0.0000 C=    0.0000
 XYZ=  -11.9191  -24.7031  -11.1518 Q=   -0.8340 A=    0.0000 R=    0.0000 C=    0.0000
 XYZ=  -10.9821  -24.5718  -11.3969 Q=    0.4170 A=    0.0000 R=    0.0000 C=    0.0000
 XYZ=  -12.4011  -24.4040  -11.9486 Q=    0.4170 A=    0.0000 R=    0.0000 C=    0.0000
 XYZ=    9.6550   -6.9970    2.5790 Q=   -0.8340 A=    0.0000 R=    0.0000 C=    0.0000
 XYZ=    9.8380   -7.5340    1.8080 Q=    0.4170 A=    0.0000 R=    0.0000 C=    0.0000
 XYZ=    9.7230   -7.6040    3.3160 Q=    0.4170 A=    0.0000 R=    0.0000 C=    0.0000
 XYZ=    3.7140  -13.5430   10.9360 Q=   -0.8340 A=    0.0000 R=    0.0000 C=    0.0000
 XYZ=    3.6540  -12.7150   10.4600 Q=    0.4170 A=    0.0000 R=    0.0000 C=    0.0000
 XYZ=    4.0570  -14.1650   10.2940 Q=    0.4170 A=    0.0000 R=    0.0000 C=    0.0000
 XYZ=  -23.0860  -12.2940  -18.5540 Q=   -0.8340 A=    0.0000 R=    0.0000 C=    0.0000
 XYZ=  -22.4140  -12.9750  -18.5280 Q=    0.4170 A=    0.0000 R=    0.0000 C=    0.0000
 XYZ=  -23.0630  -11.9010  -17.6820 Q=    0.4170 A=    0.0000 R=    0.0000 C=    0.0000
 XYZ=  -24.9650  -14.7890   -9.7490 Q=   -0.8340 A=    0.0000 R=    0.0000 C=    0.0000
 XYZ=  -25.8500  -14.5790  -10.0470 Q=    0.4170 A=    0.0000 R=    0.0000 C=    0.0000
 XYZ=  -24.3950  -14.4740  -10.4500 Q=    0.4170 A=    0.0000 R=    0.0000 C=    0.0000
 XYZ=  -19.5902   -3.4370   -0.0511 Q=   -0.8340 A=    0.0000 R=    0.0000 C=    0.0000
 XYZ=  -20.3280   -3.2914   -0.6805 Q=    0.4170 A=    0.0000 R=    0.0000 C=    0.0000
 XYZ=  -19.1750   -4.2241   -0.4587 Q=    0.4170 A=    0.0000 R=    0.0000 C=    0.0000
 XYZ=  -19.6274  -10.1416   -5.3221 Q=   -0.8340 A=    0.0000 R=    0.0000 C=    0.0000
 XYZ=  -18.7497  -10.2493   -5.6887 Q=    0.4170 A=    0.0000 R=    0.0000 C=    0.0000
 XYZ=  -20.1670   -9.8741   -6.0660 Q=    0.4170 A=    0.0000 R=    0.0000 C=    0.0000
 XYZ=   -4.8010  -20.5490  -23.9420 Q=   -0.8340 A=    0.0000 R=    0.0000 C=    0.0000
 XYZ=   -5.5920  -20.6450  -23.4110 Q=    0.4170 A=    0.0000 R=    0.0000 C=    0.0000
 XYZ=   -4.9420  -21.1320  -24.6880 Q=    0.4170 A=    0.0000 R=    0.0000 C=    0.0000
 XYZ=  -12.6430  -18.7047  -15.5554 Q=   -0.8340 A=    0.0000 R=    0.0000 C=    0.0000
 XYZ=  -11.6998  -18.4944  -15.3907 Q=    0.4170 A=    0.0000 R=    0.0000 C=    0.0000
 XYZ=  -12.5758  -19.6836  -15.5498 Q=    0.4170 A=    0.0000 R=    0.0000 C=    0.0000
 XYZ=   -5.5516   -2.2693   -0.6897 Q=   -0.8340 A=    0.0000 R=    0.0000 C=    0.0000
 XYZ=   -5.2679   -2.9699   -0.0587 Q=    0.4170 A=    0.0000 R=    0.0000 C=    0.0000
 XYZ=   -6.4089   -2.6306   -0.9927 Q=    0.4170 A=    0.0000 R=    0.0000 C=    0.0000
 XYZ=    6.9067  -11.0955   -5.6189 Q=   -0.8340 A=    0.0000 R=    0.0000 C=    0.0000
 XYZ=    7.0571  -11.1474   -4.6546 Q=    0.4170 A=    0.0000 R=    0.0000 C=    0.0000
 XYZ=    7.5314  -10.3890   -5.8792 Q=    0.4170 A=    0.0000 R=    0.0000 C=    0.0000
 XYZ=  -17.4965   -7.9334    2.0676 Q=   -0.8340 A=    0.0000 R=    0.0000 C=    0.0000
 XYZ=  -17.5272   -8.8794    1.8061 Q=    0.4170 A=    0.0000 R=    0.0000 C=    0.0000
 XYZ=  -17.0667   -7.5148    1.3037 Q=    0.4170 A=    0.0000 R=    0.0000 C=    0.0000
 XYZ=  -26.0000  -12.6050   -3.2670 Q=   -0.8340 A=    0.0000 R=    0.0000 C=    0.0000
 XYZ=  -26.3100  -13.4720   -3.5300 Q=    0.4170 A=    0.0000 R=    0.0000 C=    0.0000
 XYZ=  -25.8720  -12.1360   -4.0910 Q=    0.4170 A=    0.0000 R=    0.0000 C=    0.0000
 XYZ=  -20.3580  -14.5385   -5.7909 Q=   -0.8340 A=    0.0000 R=    0.0000 C=    0.0000
 XYZ=  -20.0749  -15.4266   -5.5730 Q=    0.4170 A=    0.0000 R=    0.0000 C=    0.0000
 XYZ=  -20.8162  -14.6309   -6.6262 Q=    0.4170 A=    0.0000 R=    0.0000 C=    0.0000
 XYZ=  -23.3750   -8.5470   -0.0180 Q=   -0.8340 A=    0.0000 R=    0.0000 C=    0.0000
 XYZ=  -23.5100   -8.7290   -0.9480 Q=    0.4170 A=    0.0000 R=    0.0000 C=    0.0000
 XYZ=  -23.4410   -9.4020    0.4070 Q=    0.4170 A=    0.0000 R=    0.0000 C=    0.0000
 XYZ=  -23.7090  -13.2800   -7.9040 Q=   -0.8340 A=    0.0000 R=    0.0000 C=    0.0000
 XYZ=  -24.0080  -13.4850   -7.0180 Q=    0.4170 A=    0.0000 R=    0.0000 C=    0.0000
 XYZ=  -24.3560  -13.6910   -8.4770 Q=    0.4170 A=    0.0000 R=    0.0000 C=    0.0000
 XYZ=  -23.6590   -9.0910   -2.6920 Q=   -0.8340 A=    0.0000 R=    0.0000 C=    0.0000
 XYZ=  -23.3180   -9.7410   -3.3050 Q=    0.4170 A=    0.0000 R=    0.0000 C=    0.0000
 XYZ=  -24.3510   -8.6420   -3.1770 Q=    0.4170 A=    0.0000 R=    0.0000 C=    0.0000
 XYZ=    4.9150  -14.0280    8.2560 Q=   -0.8340 A=    0.0000 R=    0.0000 C=    0.0000
 XYZ=    4.1670  -13.5140    7.9510 Q=    0.4170 A=    0.0000 R=    0.0000 C=    0.0000
 XYZ=    5.6700  -13.4540    8.1260 Q=    0.4170 A=    0.0000 R=    0.0000 C=    0.0000
 XYZ=  -12.5461  -23.0947   -9.0703 Q=   -0.8340 A=    0.0000 R=    0.0000 C=    0.0000
 XYZ=  -12.6721  -22.2214   -9.4942 Q=    0.4170 A=    0.0000 R=    0.0000 C=    0.0000
 XYZ=  -12.3615  -23.6804   -9.8396 Q=    0.4170 A=    0.0000 R=    0.0000 C=    0.0000
 XYZ=  -14.4970   -2.2930    9.1850 Q=   -0.8340 A=    0.0000 R=    0.0000 C=    0.0000
 XYZ=  -14.5760   -1.4150    9.5570 Q=    0.4170 A=    0.0000 R=    0.0000 C=    0.0000
 XYZ=  -15.2040   -2.3460    8.5420 Q=    0.4170 A=    0.0000 R=    0.0000 C=    0.0000
 XYZ=  -11.3290  -22.8700   10.1860 Q=   -0.8340 A=    0.0000 R=    0.0000 C=    0.0000
 XYZ=  -10.9070  -22.2050   10.7290 Q=    0.4170 A=    0.0000 R=    0.0000 C=    0.0000
 XYZ=  -10.6260  -23.4800    9.9620 Q=    0.4170 A=    0.0000 R=    0.0000 C=    0.0000
 XYZ=  -15.6339  -14.3079  -19.8360 Q=   -0.8340 A=    0.0000 R=    0.0000 C=    0.0000
 XYZ=  -16.1296  -13.6574  -20.3629 Q=    0.4170 A=    0.0000 R=    0.0000 C=    0.0000
 XYZ=  -15.3100  -13.7217  -19.1075 Q=    0.4170 A=    0.0000 R=    0.0000 C=    0.0000
 XYZ=   -2.0060  -23.6130  -17.4660 Q=   -0.8340 A=    0.0000 R=    0.0000 C=    0.0000
 XYZ=   -2.9610  -23.5570  -17.4660 Q=    0.4170 A=    0.0000 R=    0.0000 C=    0.0000
 XYZ=   -1.7510  -23.3820  -16.5730 Q=    0.4170 A=    0.0000 R=    0.0000 C=    0.0000
 XYZ=  -14.9600   -0.3710    5.3140 Q=   -0.8340 A=    0.0000 R=    0.0000 C=    0.0000
 XYZ=  -15.1870   -0.4510    4.3870 Q=    0.4170 A=    0.0000 R=    0.0000 C=    0.0000
 XYZ=  -15.4720    0.3750    5.6230 Q=    0.4170 A=    0.0000 R=    0.0000 C=    0.0000
 XYZ=  -21.4650   -3.4030   -2.2850 Q=   -0.8340 A=    0.0000 R=    0.0000 C=    0.0000
 XYZ=  -22.2930   -3.7540   -1.9570 Q=    0.4170 A=    0.0000 R=    0.0000 C=    0.0000
 XYZ=  -21.5200   -3.5080   -3.2350 Q=    0.4170 A=    0.0000 R=    0.0000 C=    0.0000
 XYZ=  -12.5966  -12.4734   -2.3289 Q=   -0.8340 A=    0.0000 R=    0.0000 C=    0.0000
 XYZ=  -13.2836  -11.7725   -2.2515 Q=    0.4170 A=    0.0000 R=    0.0000 C=    0.0000
 XYZ=  -13.1385  -13.2667   -2.5269 Q=    0.4170 A=    0.0000 R=    0.0000 C=    0.0000
 XYZ=   -6.1020  -18.1060  -23.3830 Q=   -0.8340 A=    0.0000 R=    0.0000 C=    0.0000
 XYZ=   -5.2600  -18.5080  -23.5950 Q=    0.4170 A=    0.0000 R=    0.0000 C=    0.0000
 XYZ=   -5.8740  -17.2630  -22.9920 Q=    0.4170 A=    0.0000 R=    0.0000 C=    0.0000
 XYZ=  -11.0856   -5.8849   11.0040 Q=   -0.8340 A=    0.0000 R=    0.0000 C=    0.0000
 XYZ=  -10.5184   -6.5540   11.3870 Q=    0.4170 A=    0.0000 R=    0.0000 C=    0.0000
 XYZ=  -10.5477   -5.4725   10.3281 Q=    0.4170 A=    0.0000 R=    0.0000 C=    0.0000
 XYZ=    5.3716    2.0327   -3.4422 Q=   -0.8340 A=    0.0000 R=    0.0000 C=    0.0000
 XYZ=    5.0108    2.0748   -4.3513 Q=    0.4170 A=    0.0000 R=    0.0000 C=    0.0000
 XYZ=    4.6051    2.3722   -2.9323 Q=    0.4170 A=    0.0000 R=    0.0000 C=    0.0000
 XYZ=    1.4812   -8.5075    2.5054 Q=   -0.8340 A=    0.0000 R=    0.0000 C=    0.0000
 XYZ=    2.4206   -8.3422    2.2920 Q=    0.4170 A=    0.0000 R=    0.0000 C=    0.0000
 XYZ=    1.2195   -7.6360    2.8670 Q=    0.4170 A=    0.0000 R=    0.0000 C=    0.0000
 XYZ=  -10.0679  -25.5267   -1.5033 Q=   -0.8340 A=    0.0000 R=    0.0000 C=    0.0000
 XYZ=   -9.7864  -24.7923   -2.0603 Q=    0.4170 A=    0.0000 R=    0.0000 C=    0.0000
 XYZ=   -9.5627  -25.3714   -0.6813 Q=    0.4170 A=    0.0000 R=    0.0000 C=    0.0000
 XYZ=  -16.6196  -17.9741  -14.3097 Q=   -0.8340 A=    0.0000 R=    0.0000 C=    0.0000
 XYZ=  -17.2563  -17.2332  -14.3606 Q=    0.4170 A=    0.0000 R=    0.0000 C=    0.0000
 XYZ=  -15.7915  -17.5080  -14.5604 Q=    0.4170 A=    0.0000 R=    0.0000 C=    0.0000
 XYZ=   -7.0216  -25.4212   -9.9080 Q=   -0.8340 A=    0.0000 R=    0.0000 C=    0.0000
 XYZ=   -7.0490  -26.3727  -10.0089 Q=    0.4170 A=    0.0000 R=    0.0000 C=    0.0000
 XYZ=   -6.9250  -25.2825   -8.9659 Q=    0.4170 A=    0.0000 R=    0.0000 C=    0.0000
 XYZ=   -9.6820  -14.0180  -25.3720 Q=   -0.8340 A=    0.0000 R=    0.0000 C=    0.0000
 XYZ=  -10.2470  -14.7900  -25.4150 Q=    0.4170 A=    0.0000 R=    0.0000 C=    0.0000
 XYZ=   -8.8010  -14.3720  -25.2510 Q=    0.4170 A=    0.0000 R=    0.0000 C=    0.0000
 XYZ=   -7.6120  -11.3210  -25.8530 Q=   -0.8340 A=    0.0000 R=    0.0000 C=    0.0000
 XYZ=   -8.4710  -11.7420  -25.9060 Q=    0.4170 A=    0.0000 R=    0.0000 C=    0.0000
 XYZ=   -7.0810  -11.9260  -25.3360 Q=    0.4170 A=    0.0000 R=    0.0000 C=    0.0000
 XYZ=   -4.6652    0.2408   -1.0963 Q=   -0.8340 A=    0.0000 R=    0.0000 C=    0.0000
 XYZ=   -3.7035    0.0371   -1.1002 Q=    0.4170 A=    0.0000 R=    0.0000 C=    0.0000
 XYZ=   -5.0247   -0.6588   -0.9295 Q=    0.4170 A=    0.0000 R=    0.0000 C=    0.0000
 XYZ=  -16.9180  -12.1650    8.7730 Q=   -0.8340 A=    0.0000 R=    0.0000 C=    0.0000
 XYZ=  -17.7100  -12.6850    8.6340 Q=    0.4170 A=    0.0000 R=    0.0000 C=    0.0000
 XYZ=  -17.1940  -11.4620    9.3610 Q=    0.4170 A=    0.0000 R=    0.0000 C=    0.0000
 XYZ=   -8.7563   -7.0713  -10.0604 Q=   -0.8340 A=    0.0000 R=    0.0000 C=    0.0000
 XYZ=   -8.8772   -7.1911   -9.0935 Q=    0.4170 A=    0.0000 R=    0.0000 C=    0.0000
 XYZ=   -9.2598   -6.2319  -10.1910 Q=    0.4170 A=    0.0000 R=    0.0000 C=    0.0000
 XYZ=   -6.0099  -13.5048    0.7023 Q=   -0.8340 A=    0.0000 R=    0.0000 C=    0.0000
 XYZ=   -6.0818  -12.5294    0.7652 Q=    0.4170 A=    0.0000 R=    0.0000 C=    0.0000
 XYZ=   -5.8684  -13.7392    1.6409 Q=    0.4170 A=    0.0000 R=    0.0000 C=    0.0000
 XYZ=    1.4160    7.8370   -6.9120 Q=   -0.8340 A=    0.0000 R=    0.0000 C=    0.0000
 XYZ=    0.6470    7.2940   -6.7360 Q=    0.4170 A=    0.0000 R=    0.0000 C=    0.0000
 XYZ=    1.3350    8.0750   -7.8360 Q=    0.4170 A=    0.0000 R=    0.0000 C=    0.0000
 XYZ=   -8.8010    3.0050   10.5290 Q=   -0.8340 A=    0.0000 R=    0.0000 C=    0.0000
 XYZ=   -9.1590    3.5780   11.2070 Q=    0.4170 A=    0.0000 R=    0.0000 C=    0.0000
 XYZ=   -8.9020    2.1220   10.8850 Q=    0.4170 A=    0.0000 R=    0.0000 C=    0.0000
 XYZ=  -13.1167  -10.4754   -7.9208 Q=   -0.8340 A=    0.0000 R=    0.0000 C=    0.0000
 XYZ=  -12.3984  -11.1382   -7.9390 Q=    0.4170 A=    0.0000 R=    0.0000 C=    0.0000
 XYZ=  -12.8776   -9.9933   -7.1022 Q=    0.4170 A=    0.0000 R=    0.0000 C=    0.0000
 XYZ=   -5.2960  -23.8142  -11.3089 Q=   -0.8340 A=    0.0000 R=    0.0000 C=    0.0000
 XYZ=   -4.6466  -23.6716  -10.6202 Q=    0.4170 A=    0.0000 R=    0.0000 C=    0.0000
 XYZ=   -5.9700  -24.3535  -10.8953 Q=    0.4170 A=    0.0000 R=    0.0000 C=    0.0000
 XYZ=  -16.4660    5.7270  -10.8430 Q=   -0.8340 A=    0.0000 R=    0.0000 C=    0.0000
 XYZ=  -15.7700    6.3740  -10.9640 Q=    0.4170 A=    0.0000 R=    0.0000 C=    0.0000
 XYZ=  -17.1790    6.2170  -10.4330 Q=    0.4170 A=    0.0000 R=    0.0000 C=    0.0000
 XYZ=   -9.8335   -9.8357    5.0083 Q=   -0.8340 A=    0.0000 R=    0.0000 C=    0.0000
 XYZ=   -9.1538   -9.7984    4.2909 Q=    0.4170 A=    0.0000 R=    0.0000 C=    0.0000
 XYZ=   -9.6775   -8.9998    5.4681 Q=    0.4170 A=    0.0000 R=    0.0000 C=    0.0000
 XYZ=  -16.3430    3.5560    4.4200 Q=   -0.8340 A=    0.0000 R=    0.0000 C=    0.0000
 XYZ=  -17.0370    2.9930    4.0760 Q=    0.4170 A=    0.0000 R=    0.0000 C=    0.0000
 XYZ=  -15.7430    2.9550    4.8600 Q=    0.4170 A=    0.0000 R=    0.0000 C=    0.0000
 XYZ=  -18.9784   -0.7956   -7.4722 Q=   -0.8340 A=    0.0000 R=    0.0000 C=    0.0000
 XYZ=  -19.1015   -1.0726   -8.4041 Q=    0.4170 A=    0.0000 R=    0.0000 C=    0.0000
 XYZ=  -19.8663   -0.4654   -7.2591 Q=    0.4170 A=    0.0000 R=    0.0000 C=    0.0000
 XYZ=   -9.2568    2.0773   -2.6692 Q=   -0.8340 A=    0.0000 R=    0.0000 C=    0.0000
 XYZ=   -9.5855    2.3262   -1.7796 Q=    0.4170 A=    0.0000 R=    0.0000 C=    0.0000
 XYZ=   -9.0280    1.1340   -2.5553 Q=    0.4170 A=    0.0000 R=    0.0000 C=    0.0000
 XYZ=   -3.9838   -0.9479    4.5494 Q=   -0.8340 A=    0.0000 R=    0.0000 C=    0.0000
 XYZ=   -4.4698   -0.8389    3.7002 Q=    0.4170 A=    0.0000 R=    0.0000 C=    0.0000
 XYZ=   -4.6579   -0.5943    5.1675 Q=    0.4170 A=    0.0000 R=    0.0000 C=    0.0000
 XYZ=    5.1396   -6.0054   -9.8894 Q=   -0.8340 A=    0.0000 R=    0.0000 C=    0.0000
 XYZ=    5.8320   -5.6765   -9.2772 Q=    0.4170 A=    0.0000 R=    0.0000 C=    0.0000
 XYZ=    5.6806   -6.2418  -10.6677 Q=    0.4170 A=    0.0000 R=    0.0000 C=    0.0000
 XYZ=  -15.9180    2.9440  -14.3890 Q=   -0.8340 A=    0.0000 R=    0.0000 C=    0.0000
 XYZ=  -15.9700    3.1670  -15.3190 Q=    0.4170 A=    0.0000 R=    0.0000 C=    0.0000
 XYZ=  -15.4660    3.6870  -13.9900 Q=    0.4170 A=    0.0000 R=    0.0000 C=    0.0000
 XYZ=   -0.4014   -7.6345   -7.4296 Q=   -0.8340 A=    0.0000 R=    0.0000 C=    0.0000
 XYZ=   -0.1237   -8.5555   -7.5884 Q=    0.4170 A=    0.0000 R=    0.0000 C=    0.0000
 XYZ=   -1.3394   -7.7606   -7.1590 Q=    0.4170 A=    0.0000 R=    0.0000 C=    0.0000
 XYZ=   -4.8578   -3.3069  -13.0690 Q=   -0.8340 A=    0.0000 R=    0.0000 C=    0.0000
 XYZ=   -5.0515   -2.9118  -12.2189 Q=    0.4170 A=    0.0000 R=    0.0000 C=    0.0000
 XYZ=   -4.0874   -3.8523  -12.9102 Q=    0.4170 A=    0.0000 R=    0.0000 C=    0.0000
 XYZ=   -4.8102  -10.8772    4.6663 Q=   -0.8340 A=    0.0000 R=    0.0000 C=    0.0000
 XYZ=   -5.4598  -11.5957    4.8378 Q=    0.4170 A=    0.0000 R=    0.0000 C=    0.0000
 XYZ=   -4.7523  -10.4798    5.5435 Q=    0.4170 A=    0.0000 R=    0.0000 C=    0.0000
 XYZ=  -14.3720    1.9050  -18.0580 Q=   -0.8340 A=    0.0000 R=    0.0000 C=    0.0000
 XYZ=  -14.7730    2.7650  -17.9340 Q=    0.4170 A=    0.0000 R=    0.0000 C=    0.0000
 XYZ=  -13.4300    2.0700  -18.0090 Q=    0.4170 A=    0.0000 R=    0.0000 C=    0.0000
 XYZ=   -2.9010    8.4070   -0.8900 Q=   -0.8340 A=    0.0000 R=    0.0000 C=    0.0000
 XYZ=   -3.8010    8.3390   -1.2080 Q=    0.4170 A=    0.0000 R=    0.0000 C=    0.0000
 XYZ=   -2.9610    8.9720   -0.1190 Q=    0.4170 A=    0.0000 R=    0.0000 C=    0.0000
 XYZ=  -11.4980  -13.1520   15.1600 Q=   -0.8340 A=    0.0000 R=    0.0000 C=    0.0000
 XYZ=  -12.3500  -12.8610   15.4850 Q=    0.4170 A=    0.0000 R=    0.0000 C=    0.0000
 XYZ=  -10.8680  -12.5680   15.5820 Q=    0.4170 A=    0.0000 R=    0.0000 C=    0.0000
 XYZ=  -17.0210   -4.2750  -22.5720 Q=   -0.8340 A=    0.0000 R=    0.0000 C=    0.0000
 XYZ=  -17.6560   -4.1250  -21.8720 Q=    0.4170 A=    0.0000 R=    0.0000 C=    0.0000
 XYZ=  -16.6110   -5.1110  -22.3490 Q=    0.4170 A=    0.0000 R=    0.0000 C=    0.0000
 XYZ=  -14.9188  -21.2450  -13.7752 Q=   -0.8340 A=    0.0000 R=    0.0000 C=    0.0000
 XYZ=  -15.7078  -20.7634  -14.0567 Q=    0.4170 A=    0.0000 R=    0.0000 C=    0.0000
 XYZ=  -14.4320  -20.5617  -13.2659 Q=    0.4170 A=    0.0000 R=    0.0000 C=    0.0000
 XYZ=  -14.3540    4.9510  -13.1070 Q=   -0.8340 A=    0.0000 R=    0.0000 C=    0.0000
 XYZ=  -13.8220    5.6990  -13.3800 Q=    0.4170 A=    0.0000 R=    0.0000 C=    0.0000
 XYZ=  -14.8190    5.2580  -12.3290 Q=    0.4170 A=    0.0000 R=    0.0000 C=    0.0000
 XYZ=   -9.2220   -8.7078  -16.3995 Q=   -0.8340 A=    0.0000 R=    0.0000 C=    0.0000
 XYZ=   -9.3866   -8.2141  -15.5733 Q=    0.4170 A=    0.0000 R=    0.0000 C=    0.0000
 XYZ=  -10.1226   -8.7037  -16.7811 Q=    0.4170 A=    0.0000 R=    0.0000 C=    0.0000
 XYZ=    2.6860  -29.2930    0.4910 Q=   -0.8340 A=    0.0000 R=    0.0000 C=    0.0000
 XYZ=    3.0290  -29.1660    1.3760 Q=    0.4170 A=    0.0000 R=    0.0000 C=    0.0000
 XYZ=    1.8170  -28.8920    0.5110 Q=    0.4170 A=    0.0000 R=    0.0000 C=    0.0000
 XYZ=    2.5350  -30.3740   -8.0190 Q=   -0.8340 A=    0.0000 R=    0.0000 C=    0.0000
 XYZ=    2.8950  -31.0310   -7.4230 Q=    0.4170 A=    0.0000 R=    0.0000 C=    0.0000
 XYZ=    3.1630  -29.6530   -7.9880 Q=    0.4170 A=    0.0000 R=    0.0000 C=    0.0000
 XYZ=  -18.7530    5.5100  -12.5600 Q=   -0.8340 A=    0.0000 R=    0.0000 C=    0.0000
 XYZ=  -18.4920    6.3110  -13.0140 Q=    0.4170 A=    0.0000 R=    0.0000 C=    0.0000
 XYZ=  -17.9290    5.1180  -12.2710 Q=    0.4170 A=    0.0000 R=    0.0000 C=    0.0000
 XYZ=    1.6989  -23.5896    2.1011 Q=   -0.8340 A=    0.0000 R=    0.0000 C=    0.0000
 XYZ=    2.1594  -22.7537    2.0272 Q=    0.4170 A=    0.0000 R=    0.0000 C=    0.0000
 XYZ=    1.2541  -23.6938    1.2599 Q=    0.4170 A=    0.0000 R=    0.0000 C=    0.0000
 XYZ=    5.4133  -14.3058    5.0635 Q=   -0.8340 A=    0.0000 R=    0.0000 C=    0.0000
 XYZ=    4.6622  -14.8560    5.3773 Q=    0.4170 A=    0.0000 R=    0.0000 C=    0.0000
 XYZ=    6.1407  -14.9632    5.0798 Q=    0.4170 A=    0.0000 R=    0.0000 C=    0.0000
 XYZ=   -5.7523   -7.6001   -3.0158 Q=   -0.8340 A=    0.0000 R=    0.0000 C=    0.0000
 XYZ=   -4.9240   -8.0660   -2.7435 Q=    0.4170 A=    0.0000 R=    0.0000 C=    0.0000
 XYZ=   -5.4596   -7.2886   -3.8977 Q=    0.4170 A=    0.0000 R=    0.0000 C=    0.0000
 XYZ=  -23.3470   -9.7980   -8.2020 Q=   -0.8340 A=    0.0000 R=    0.0000 C=    0.0000
 XYZ=  -23.9500   -9.5670   -8.9090 Q=    0.4170 A=    0.0000 R=    0.0000 C=    0.0000
 XYZ=  -23.8350   -9.6090   -7.4010 Q=    0.4170 A=    0.0000 R=    0.0000 C=    0.0000
 XYZ=   12.6710  -12.4630  -10.2800 Q=   -0.8340 A=    0.0000 R=    0.0000 C=    0.0000
 XYZ=   13.0410  -11.6900   -9.8550 Q=    0.4170 A=    0.0000 R=    0.0000 C=    0.0000
 XYZ=   13.1170  -12.5090  -11.1260 Q=    0.4170 A=    0.0000 R=    0.0000 C=    0.0000
 XYZ=    9.4900    0.5840   -8.0140 Q=   -0.8340 A=    0.0000 R=    0.0000 C=    0.0000
 XYZ=    8.7730    0.5880   -7.3790 Q=    0.4170 A=    0.0000 R=    0.0000 C=    0.0000
 XYZ=    9.5140    1.4790   -8.3540 Q=    0.4170 A=    0.0000 R=    0.0000 C=    0.0000
 XYZ=  -15.2990  -26.6870  -10.8540 Q=   -0.8340 A=    0.0000 R=    0.0000 C=    0.0000
 XYZ=  -14.6010  -26.4460  -11.4650 Q=    0.4170 A=    0.0000 R=    0.0000 C=    0.0000
 XYZ=  -15.6240  -27.5260  -11.1800 Q=    0.4170 A=    0.0000 R=    0.0000 C=    0.0000
 XYZ=   -2.5449    2.8464    0.5233 Q=   -0.8340 A=    0.0000 R=    0.0000 C=    0.0000
 XYZ=   -2.4030    3.7865    0.6343 Q=    0.4170 A=    0.0000 R=    0.0000 C=    0.0000
 XYZ=   -3.4951    2.7400    0.5691 Q=    0.4170 A=    0.0000 R=    0.0000 C=    0.0000
 XYZ=    3.4950   -9.5040  -20.3580 Q=   -0.8340 A=    0.0000 R=    0.0000 C=    0.0000
 XYZ=    3.9270  -10.1820  -19.8390 Q=    0.4170 A=    0.0000 R=    0.0000 C=    0.0000
 XYZ=    4.1470   -8.8070  -20.4320 Q=    0.4170 A=    0.0000 R=    0.0000 C=    0.0000
 XYZ=  -22.3440  -21.4660   -6.9010 Q=   -0.8340 A=    0.0000 R=    0.0000 C=    0.0000
 XYZ=  -23.1330  -20.9290   -6.8240 Q=    0.4170 A=    0.0000 R=    0.0000 C=    0.0000
 XYZ=  -22.2560  -21.6300   -7.8400 Q=    0.4170 A=    0.0000 R=    0.0000 C=    0.0000
 XYZ=  -12.6280  -15.5480   14.6410 Q=   -0.8340 A=    0.0000 R=    0.0000 C=    0.0000
 XYZ=  -12.0590  -14.8260   14.9090 Q=    0.4170 A=    0.0000 R=    0.0000 C=    0.0000
 XYZ=  -12.6440  -15.4980   13.6860 Q=    0.4170 A=    0.0000 R=    0.0000 C=    0.0000
 XYZ=    5.9694    0.2506   -9.3963 Q=   -0.8340 A=    0.0000 R=    0.0000 C=    0.0000
 XYZ=    5.8952    1.1818   -9.1177 Q=    0.4170 A=    0.0000 R=    0.0000 C=    0.0000
 XYZ=    5.0539   -0.0557   -9.1905 Q=    0.4170 A=    0.0000 R=    0.0000 C=    0.0000
 XYZ=   -9.4718   -0.8527  -14.5867 Q=   -0.8340 A=    0.0000 R=    0.0000 C=    0.0000
 XYZ=   -9.0270   -1.5017  -15.1728 Q=    0.4170 A=    0.0000 R=    0.0000 C=    0.0000
 XYZ=  -10.2452   -1.3874  -14.2879 Q=    0.4170 A=    0.0000 R=    0.0000 C=    0.0000
 XYZ=    7.8410  -16.9350    7.6070 Q=   -0.8340 A=    0.0000 R=    0.0000 C=    0.0000
 XYZ=    6.9910  -17.0640    8.0260 Q=    0.4170 A=    0.0000 R=    0.0000 C=    0.0000
 XYZ=    7.6890  -17.1450    6.6850 Q=    0.4170 A=    0.0000 R=    0.0000 C=    0.0000
 XYZ=  -14.9048   -2.3713   -2.2040 Q=   -0.8340 A=    0.0000 R=    0.0000 C=    0.0000
 XYZ=  -15.0667   -1.4684   -2.5338 Q=    0.4170 A=    0.0000 R=    0.0000 C=    0.0000
 XYZ=  -15.6193   -2.4243   -1.5239 Q=    0.4170 A=    0.0000 R=    0.0000 C=    0.0000
 XYZ=    4.6549   -7.8094   -1.0070 Q=   -0.8340 A=    0.0000 R=    0.0000 C=    0.0000
 XYZ=    4.7663   -8.7445   -1.2736 Q=    0.4170 A=    0.0000 R=    0.0000 C=    0.0000
 XYZ=    4.3606   -7.9206   -0.0788 Q=    0.4170 A=    0.0000 R=    0.0000 C=    0.0000
 XYZ=  -16.2070  -18.5520    7.1130 Q=   -0.8340 A=    0.0000 R=    0.0000 C=    0.0000
 XYZ=  -16.2330  -17.6650    7.4710 Q=    0.4170 A=    0.0000 R=    0.0000 C=    0.0000
 XYZ=  -16.1270  -19.1180    7.8810 Q=    0.4170 A=    0.0000 R=    0.0000 C=    0.0000
 XYZ=    0.5690   -5.9386    3.0838 Q=   -0.8340 A=    0.0000 R=    0.0000 C=    0.0000
 XYZ=    0.5451   -5.0577    3.5063 Q=    0.4170 A=    0.0000 R=    0.0000 C=    0.0000
 XYZ=    0.8842   -5.7287    2.1805 Q=    0.4170 A=    0.0000 R=    0.0000 C=    0.0000
 XYZ=   -1.7860    5.0830    6.9690 Q=   -0.8340 A=    0.0000 R=    0.0000 C=    0.0000
 XYZ=   -1.7650    4.1740    6.6710 Q=    0.4170 A=    0.0000 R=    0.0000 C=    0.0000
 XYZ=   -0.9250    5.2270    7.3610 Q=    0.4170 A=    0.0000 R=    0.0000 C=    0.0000
 XYZ=   -6.4408  -10.4968   -8.5410 Q=   -0.8340 A=    0.0000 R=    0.0000 C=    0.0000
 XYZ=   -6.3014  -10.9599   -7.6893 Q=    0.4170 A=    0.0000 R=    0.0000 C=    0.0000
 XYZ=   -5.4965  -10.4151   -8.8012 Q=    0.4170 A=    0.0000 R=    0.0000 C=    0.0000
 XYZ=  -23.1330  -11.8930  -15.0410 Q=   -0.8340 A=    0.0000 R=    0.0000 C=    0.0000
 XYZ=  -22.5620  -12.6400  -15.2200 Q=    0.4170 A=    0.0000 R=    0.0000 C=    0.0000
 XYZ=  -23.7570  -12.2180  -14.3910 Q=    0.4170 A=    0.0000 R=    0.0000 C=    0.0000
 XYZ=  -18.6770  -10.7470  -18.5420 Q=   -0.8340 A=    0.0000 R=    0.0000 C=    0.0000
 XYZ=  -17.8870  -10.6410  -18.0110 Q=    0.4170 A=    0.0000 R=    0.0000 C=    0.0000
 XYZ=  -18.3770  -11.1950  -19.3320 Q=    0.4170 A=    0.0000 R=    0.0000 C=    0.0000
 XYZ=  -16.2670  -25.2050    6.8830 Q=   -0.8340 A=    0.0000 R=    0.0000 C=    0.0000
 XYZ=  -16.7890  -25.7850    6.3290 Q=    0.4170 A=    0.0000 R=    0.0000 C=    0.0000
 XYZ=  -15.5200  -25.7400    7.1540 Q=    0.4170 A=    0.0000 R=    0.0000 C=    0.0000
 XYZ=   -0.9441  -13.4218    6.7478 Q=   -0.8340 A=    0.0000 R=    0.0000 C=    0.0000
 XYZ=    0.0022  -13.5914    6.8385 Q=    0.4170 A=    0.0000 R=    0.0000 C=    0.0000
 XYZ=   -1.3064  -14.0170    7.4403 Q=    0.4170 A=    0.0000 R=    0.0000 C=    0.0000
 XYZ=  -11.5030  -29.2470  -12.9310 Q=   -0.8340 A=    0.0000 R=    0.0000 C=    0.0000
 XYZ=  -11.7640  -29.5170  -12.0510 Q=    0.4170 A=    0.0000 R=    0.0000 C=    0.0000
 XYZ=  -10.6390  -29.6400  -13.0570 Q=    0.4170 A=    0.0000 R=    0.0000 C=    0.0000
 XYZ=  -14.5140  -16.5971  -15.2881 Q=   -0.8340 A=    0.0000 R=    0.0000 C=    0.0000
 XYZ=  -13.7096  -17.1459  -15.2105 Q=    0.4170 A=    0.0000 R=    0.0000 C=    0.0000
 XYZ=  -14.1622  -15.6817  -15.2350 Q=    0.4170 A=    0.0000 R=    0.0000 C=    0.0000
 XYZ=   -4.6306  -23.8067  -16.7814 Q=   -0.8340 A=    0.0000 R=    0.0000 C=    0.0000
 XYZ=   -5.1583  -24.0778  -17.5325 Q=    0.4170 A=    0.0000 R=    0.0000 C=    0.0000
 XYZ=   -5.2593  -23.7210  -16.0647 Q=    0.4170 A=    0.0000 R=    0.0000 C=    0.0000
 XYZ=  -11.5270  -28.6850   -5.2900 Q=   -0.8340 A=    0.0000 R=    0.0000 C=    0.0000
 XYZ=  -11.6310  -28.3420   -6.1770 Q=    0.4170 A=    0.0000 R=    0.0000 C=    0.0000
 XYZ=  -12.4200  -28.8700   -4.9980 Q=    0.4170 A=    0.0000 R=    0.0000 C=    0.0000
 XYZ=  -23.4200  -10.9200    1.2950 Q=   -0.8340 A=    0.0000 R=    0.0000 C=    0.0000
 XYZ=  -24.2000  -11.3000    0.8900 Q=    0.4170 A=    0.0000 R=    0.0000 C=    0.0000
 XYZ=  -23.7130  -10.6390    2.1620 Q=    0.4170 A=    0.0000 R=    0.0000 C=    0.0000
 XYZ=  -17.1322  -12.7846    5.4991 Q=   -0.8340 A=    0.0000 R=    0.0000 C=    0.0000
 XYZ=  -17.4642  -13.0062    4.6051 Q=    0.4170 A=    0.0000 R=    0.0000 C=    0.0000
 XYZ=  -17.8130  -13.1646    6.0883 Q=    0.4170 A=    0.0000 R=    0.0000 C=    0.0000
 XYZ=   -4.8768  -15.8545  -16.6349 Q=   -0.8340 A=    0.0000 R=    0.0000 C=    0.0000
 XYZ=   -4.7667  -16.7245  -16.2035 Q=    0.4170 A=    0.0000 R=    0.0000 C=    0.0000
 XYZ=   -5.4461  -15.3911  -15.9897 Q=    0.4170 A=    0.0000 R=    0.0000 C=    0.0000
 XYZ=   -8.3352  -21.9995   -9.7001 Q=   -0.8340 A=    0.0000 R=    0.0000 C=    0.0000
 XYZ=   -9.1077  -21.9794   -9.0894 Q=    0.4170 A=    0.0000 R=    0.0000 C=    0.0000
 XYZ=   -7.6204  -22.0444   -9.0348 Q=    0.4170 A=    0.0000 R=    0.0000 C=    0.0000
 XYZ=  -10.2592   -4.8211  -10.1870 Q=   -0.8340 A=    0.0000 R=    0.0000 C=    0.0000
 XYZ=  -10.2711   -4.1669   -9.4597 Q=    0.4170 A=    0.0000 R=    0.0000 C=    0.0000
 XYZ=  -11.2138   -4.8164  -10.4241 Q=    0.4170 A=    0.0000 R=    0.0000 C=    0.0000
 XYZ=    4.2773    0.7975  -14.2427 Q=   -0.8340 A=    0.0000 R=    0.0000 C=    0.0000
 XYZ=    4.4609   -0.0584  -13.8237 Q=    0.4170 A=    0.0000 R=    0.0000 C=    0.0000
 XYZ=    3.3258    0.7608  -14.4069 Q=    0.4170 A=    0.0000 R=    0.0000 C=    0.0000
 XYZ=   -0.0420    6.0560    2.3520 Q=   -0.8340 A=    0.0000 R=    0.0000 C=    0.0000
 XYZ=   -0.2690    6.9860    2.3500 Q=    0.4170 A=    0.0000 R=    0.0000 C=    0.0000
 XYZ=   -0.5130    5.6920    1.6020 Q=    0.4170 A=    0.0000 R=    0.0000 C=    0.0000
 XYZ=   -9.7840   -3.0600   10.6770 Q=   -0.8340 A=    0.0000 R=    0.0000 C=    0.0000
 XYZ=  -10.2830   -2.6020   10.0010 Q=    0.4170 A=    0.0000 R=    0.0000 C=    0.0000
 XYZ=  -10.1420   -2.7330   11.5020 Q=    0.4170 A=    0.0000 R=    0.0000 C=    0.0000
 XYZ=   -2.5609   -1.1381  -13.2873 Q=   -0.8340 A=    0.0000 R=    0.0000 C=    0.0000
[...]
 4777          -0.026401      0.000554      0.000149     -0.000392
 4778          -0.026655      0.000577      0.000122     -0.000391
 4779          -0.025203      0.000505      0.000137     -0.000357
 4780          -0.024517      0.000386      0.000412     -0.000211
 4781          -0.025376      0.000425      0.000439     -0.000211
 4782          -0.024086      0.000361      0.000414     -0.000190
 4783          -0.028051      0.000432      0.000115     -0.000642
 4784          -0.029182      0.000474      0.000149     -0.000685
 4785          -0.027662      0.000447      0.000092     -0.000609
 4786          -0.066698      0.003113     -0.001565     -0.000416
 4787          -0.067551      0.003589     -0.001575     -0.000837
 4788          -0.065365      0.003200     -0.001644     -0.000619
 4789          -0.049640      0.000313      0.000146      0.002433
 4790          -0.047660      0.000411      0.000001      0.002230
 4791          -0.046530      0.000242      0.000251      0.002134
 4792          -0.030376      0.000490     -0.000763      0.000140
 4793          -0.031256      0.000497     -0.000828      0.000113
 4794          -0.029329      0.000476     -0.000703      0.000102
 4795          -0.025465      0.000475     -0.000022     -0.000437
 4796          -0.026674      0.000519     -0.000020     -0.000482
 4797          -0.025211      0.000484     -0.000020     -0.000408
 4798          -0.025514      0.000211     -0.000604      0.000113
 4799          -0.026177      0.000238     -0.000626      0.000137
 4800          -0.026285      0.000212     -0.000649      0.000100
 4801          -0.022715      0.000460      0.000195      0.000139
 4802          -0.022116      0.000431      0.000199      0.000129
 4803          -0.023385      0.000491      0.000211      0.000131
 4804          -0.025318      0.000546     -0.000246      0.000219
 4805          -0.024369      0.000513     -0.000217      0.000198
 4806          -0.026156      0.000594     -0.000248      0.000220
 4807          -0.030471      0.000460     -0.000515     -0.000622
 4808          -0.031643      0.000523     -0.000522     -0.000677
 4809          -0.029430      0.000457     -0.000481     -0.000557
 4810          -0.077996     -0.002535     -0.004429      0.003222
 4811          -0.085579     -0.003775     -0.005122      0.003522
 4812          -0.076900     -0.002463     -0.003756      0.003710
 4813          -0.024047      0.000159     -0.000037     -0.000554
 4814          -0.023566      0.000138     -0.000021     -0.000537
 4815          -0.023342      0.000166     -0.000039     -0.000517
 4816          -0.027825      0.000229      0.000664      0.000341
 4817          -0.028158      0.000261      0.000659      0.000372
 4818          -0.026499      0.000204      0.000601      0.000313
 4819          -0.028563     -0.000810      0.000075     -0.000056
 4820          -0.028384     -0.000803      0.000034     -0.000049
 4821          -0.028621     -0.000813      0.000092     -0.000018
 4822          -0.036228      0.000680      0.001038     -0.000449
 4823          -0.036213      0.000664      0.001081     -0.000371
 4824          -0.035876      0.000741      0.000976     -0.000421
 4825          -0.030195     -0.000776      0.000082      0.000463
 4826          -0.031235     -0.000843      0.000116      0.000467
 4827          -0.030779     -0.000808      0.000037      0.000485
 4828          -0.038732      0.000275      0.000586      0.001363
 4829          -0.037127      0.000205      0.000598      0.001233
 4830          -0.040937      0.000223      0.000648      0.001537
 4831          -0.023696      0.000341      0.000360     -0.000263
 4832          -0.023886      0.000351      0.000377     -0.000247
 4833          -0.024623      0.000363      0.000385     -0.000295
 4834          -0.061066      0.001150      0.003475      0.001260
 4835          -0.061859      0.001515      0.003578      0.000940
 4836          -0.059664      0.000782      0.003454      0.000972
 4837          -0.024046      0.000314     -0.000394      0.000279
 4838          -0.023263      0.000296     -0.000359      0.000272
 4839          -0.023674      0.000292     -0.000398      0.000262
 4840          -0.027615     -0.000129     -0.000022     -0.000752
 4841          -0.027946     -0.000165     -0.000041     -0.000764
 4842          -0.027765     -0.000102     -0.000048     -0.000764
 4843          -0.034682     -0.000418     -0.000816      0.000773
 4844          -0.036883     -0.000474     -0.000943      0.000851
 4845          -0.034338     -0.000340     -0.000812      0.000779
 4846          -0.036032      0.000552     -0.000653     -0.000987
 4847          -0.033869      0.000471     -0.000568     -0.000885
 4848          -0.036722      0.000499     -0.000722     -0.001038
 4849          -0.038651     -0.000054     -0.000813      0.001241
 4850          -0.041252     -0.000116     -0.000907      0.001421
 4851          -0.038467     -0.000059     -0.000889      0.001171
 4852          -0.027421      0.000519     -0.000244      0.000484
 4853          -0.026723      0.000487     -0.000258      0.000451
 4854          -0.028228      0.000526     -0.000262      0.000536
 4855          -0.025223      0.000327     -0.000292      0.000459
 4856          -0.024504      0.000319     -0.000285      0.000419
 4857          -0.025584      0.000316     -0.000320      0.000473
 4858          -0.031979      0.000765     -0.000088      0.000677
 4859          -0.031917      0.000754     -0.000147      0.000671
 4860          -0.033264      0.000795     -0.000082      0.000771
 4861          -0.024366      0.000403     -0.000303     -0.000310
 4862          -0.023821      0.000370     -0.000300     -0.000305
 4863          -0.024830      0.000420     -0.000331     -0.000303
 4864          -0.096487      0.009183     -0.000422     -0.004648
 4865          -0.084123      0.007027      0.000012     -0.002886
 4866          -0.114721      0.014352      0.000771     -0.007285
 4867          -0.037441      0.001152     -0.000450     -0.000616
 4868          -0.037967      0.001200     -0.000512     -0.000550
 4869          -0.036681      0.001064     -0.000489     -0.000629
 4870          -0.030354      0.000034     -0.000879      0.000276
 4871          -0.030011      0.000044     -0.000872      0.000224
 4872          -0.028935      0.000036     -0.000793      0.000268
 4873          -0.028865      0.000683     -0.000449     -0.000104
 4874          -0.030232      0.000749     -0.000496     -0.000091
 4875          -0.028433      0.000641     -0.000467     -0.000106
 4876          -0.034254      0.000547     -0.000927      0.000449
 4877          -0.035674      0.000621     -0.001014      0.000429
 4878          -0.035292      0.000522     -0.001001      0.000512
 4879          -0.031264      0.000308     -0.000534     -0.000766
 4880          -0.030398      0.000294     -0.000540     -0.000696
 4881          -0.032985      0.000325     -0.000611     -0.000849
 4882          -0.033081     -0.000068     -0.000288     -0.001061
 4883          -0.032842     -0.000131     -0.000297     -0.001036
 4884          -0.032125     -0.000036     -0.000319     -0.000988
 4885          -0.026602      0.000303     -0.000184      0.000612
 4886          -0.026649      0.000313     -0.000214      0.000599
 4887          -0.027761      0.000340     -0.000185      0.000666
 4888          -0.032141      0.000440      0.000804     -0.000475
 4889          -0.032712      0.000501      0.000830     -0.000454
 4890          -0.030399      0.000401      0.000714     -0.000425
 4891          -0.027201      0.000230     -0.000703     -0.000004
 4892          -0.027684      0.000231     -0.000730      0.000030
 4893          -0.025969      0.000201     -0.000644     -0.000002
 4894          -0.030097     -0.000806      0.000294      0.000278
 4895          -0.031171     -0.000878      0.000314      0.000260
 4896          -0.028804     -0.000749      0.000251      0.000243
 4897          -0.030554     -0.000921     -0.000158      0.000023
 4898          -0.030183     -0.000900     -0.000145     -0.000026
 4899          -0.030634     -0.000916     -0.000210      0.000026
 4900          -0.025556      0.000480     -0.000391     -0.000197
 4901          -0.025537      0.000485     -0.000371     -0.000218
 4902          -0.024594      0.000451     -0.000360     -0.000170
 4903          -0.027219     -0.000508     -0.000384      0.000377
 4904          -0.027186     -0.000482     -0.000410      0.000379
 4905          -0.028575     -0.000567     -0.000416      0.000413
 4906          -0.031963     -0.000193      0.000637     -0.000762
 4907          -0.031938     -0.000222      0.000671     -0.000722
 4908          -0.031652     -0.000138      0.000643     -0.000743
 4909          -0.023119      0.000463     -0.000110      0.000242
 4910          -0.023777      0.000498     -0.000104      0.000245
 4911          -0.022560      0.000439     -0.000091      0.000239
 -----------------------------------------------------------------
 Leave Link  602 at Sat Jun 19 00:24:11 2021, MaxMem=   134217728 cpu:              15.5 elap:               1.0
 (Enter /APL/ISV/x86_64/gaussian/16/C.01/g16/l701.exe)
 ... and contract with generalized density number  0.
 Compute integral first derivatives.
 R6Disp: Adding Grimme-D3 dispersion energy 1st derivatives to the gradient.
 Leave Link  701 at Sat Jun 19 00:24:11 2021, MaxMem=   134217728 cpu:               2.8 elap:               0.2
 (Enter /APL/ISV/x86_64/gaussian/16/C.01/g16/l702.exe)
 L702 exits ... SP integral derivatives will be done elsewhere.
 Leave Link  702 at Sat Jun 19 00:24:11 2021, MaxMem=   134217728 cpu:               0.5 elap:               0.1
 (Enter /APL/ISV/x86_64/gaussian/16/C.01/g16/l703.exe)
 Integral derivatives from FoFJK, PRISM(SPDF).
 Compute integral first derivatives, UseDBF=F ICtDFT=           0.
 Calling FoFJK, ICntrl=      2127 FMM=F ISym2X=0 I1Cent= 0 IOpClX= 0 NMat=1 NMatS=1 NMatT=0.
 FoFJK:  IHMeth= 1 ICntrl=    2127 DoSepK=F KAlg= 0 I1Cent=           0 FoldK=F
 IRaf=         0 NMat=       1 IRICut=       1 DoRegI=T DoRafI=F ISym2E= 0 IDoP0=0 IntGTp=1.
 FoFCou: FMM=F IPFlag=           0 FMFlag=      100000 FMFlg1=         800
         NFxFlg=           0 DoJE=F BraDBF=F KetDBF=F FulRan=T
         wScrn=  0.000000 ICntrl=      2127 IOpCl=  0 I1Cent=           0 NGrid=           0
         NMat0=    1 NMatS0=      1 NMatT0=    0 NMatD0=    1 NMtDS0=    0 NMtDT0=    0
 Symmetry not used in FoFCou.
 Leave Link  703 at Sat Jun 19 00:24:11 2021, MaxMem=   134217728 cpu:               5.2 elap:               0.4
 (Enter /APL/ISV/x86_64/gaussian/16/C.01/g16/l716.exe)
 Dipole        = 7.60177871D+00 2.06724532D+01 1.16384835D+01
 -------------------------------------------------------------------
 Center     Atomic                   Forces (Hartrees/Bohr)
 Number     Number              X              Y              Z
 -------------------------------------------------------------------
      1       15           0.002921836   -0.007381930   -0.009069732
      2        8          -0.000511937   -0.013333836    0.013134558
      3        1           0.000896359    0.006645208   -0.001972884
      4        8          -0.023502385    0.002267440    0.001267521
      5        1           0.007317090    0.003235280   -0.002063952
      6        8           0.017998894    0.002570853   -0.003095046
      7        8          -0.002844575   -0.014830955   -0.005985559
 -------------------------------------------------------------------
 Cartesian Forces:  Max     0.023502385 RMS     0.009196572
 Force constants in Cartesian coordinates: 
                1             2             3             4             5 
      1  0.109728D+01
      2  0.116151D+00  0.950564D+00
      3  0.130295D-01  0.127109D+00  0.813483D+00
      4 -0.777635D-01 -0.168856D-01  0.113335D+00  0.244019D+00
      5 -0.204566D-01 -0.278452D-01  0.275166D-01 -0.109106D-01  0.592378D+00
      6  0.127595D+00  0.104857D-01 -0.334400D+00 -0.116305D+00 -0.146890D+00
      7  0.506998D-01 -0.124831D-01 -0.982512D-02  0.579526D-01  0.773921D-01
      8 -0.299960D-02  0.599033D-01 -0.315671D-02  0.587263D-01 -0.385354D+00
      9 -0.613026D-02  0.244324D-01  0.491009D-01  0.188470D-01  0.134319D+00
     10 -0.100578D+00  0.149759D+00 -0.478348D-01  0.393933D-01 -0.314672D-01
     11  0.127076D+00 -0.325298D+00  0.923365D-01 -0.737350D-02  0.400930D-01
     12 -0.400745D-01  0.851271D-01 -0.339677D-01 -0.130826D-01  0.894855D-02
     13  0.480799D-01 -0.433477D-02  0.162401D-02  0.402139D-01 -0.190352D-01
     14  0.182750D-01  0.554154D-01 -0.854663D-02  0.914004D-03  0.296945D-01
     15 -0.176802D-01 -0.106529D-01  0.471913D-01  0.287990D-01 -0.333312D-02
     16 -0.585291D+00 -0.104717D+00  0.114968D-01  0.425866D-01 -0.593395D-02
     17 -0.102990D+00 -0.275836D-01 -0.289879D-03 -0.114474D-01  0.696600D-01
     18  0.239548D-01  0.138104D-02  0.661397D-02 -0.449388D-01 -0.218046D-01
     19 -0.712445D-01 -0.127490D+00 -0.818254D-01  0.147804D-01  0.104115D-01
     20 -0.135056D+00 -0.323973D+00 -0.234969D+00 -0.130232D-01  0.425553D-01
     21 -0.100694D+00 -0.237883D+00 -0.186840D+00  0.133458D-01  0.124328D-02
                6             7             8             9            10 
      6  0.527994D+00
      7  0.777770D-02  0.156185D+00
      8  0.147294D+00  0.369576D-02  0.529562D+00
      9 -0.333177D-01  0.424729D-01 -0.115112D+00  0.164660D+00
     10 -0.718889D-02  0.179435D-01 -0.286679D-01 -0.241596D-01  0.688663D+00
     11 -0.404152D-02 -0.185497D-01  0.340211D-01 -0.145764D-01 -0.728964D-01
     12  0.472268D-01 -0.198535D-01 -0.197563D-01  0.351532D-01  0.131327D-01
     13 -0.595838D-02  0.195425D-01 -0.263788D-01 -0.228777D-01 -0.379596D+00
     14 -0.442851D-02 -0.277614D-01  0.205489D-01 -0.259436D-01 -0.222906D-01
     15  0.555803D-01  0.172635D-01 -0.447990D-02  0.499538D-01  0.758162D-01
     16 -0.292952D-02  0.404933D-01 -0.678116D-02 -0.600876D-02  0.536819D-01
     17  0.231536D-02  0.612930D-02  0.740324D-01  0.165260D-01 -0.120151D-01
     18  0.440977D-01 -0.749257D-01 -0.303749D-01  0.214610D-01  0.105131D-01
     19 -0.299003D-02  0.183650D-01  0.240536D-02 -0.214347D-02  0.416742D-01
     20 -0.473503D-02 -0.284229D-01  0.284682D-01 -0.196459D-01  0.175786D-01
     21  0.540009D-01  0.370903D-01  0.255854D-01  0.741707D-01 -0.202787D-01
               11            12            13            14            15 
     11  0.493943D+00
     12 -0.909742D-01  0.189689D+00
     13 -0.188826D-01  0.741454D-01  0.545014D+00
     14  0.215469D-01  0.470676D-01  0.787114D-01  0.158871D+00
     15  0.252275D-01  0.259384D-01 -0.353915D-01  0.307187D-01  0.138122D+00
     16  0.154253D-02  0.446240D-02  0.571766D-01  0.484210D-02 -0.307636D-02
     17  0.371439D-01 -0.359319D-01 -0.343778D-01 -0.807703D-02 -0.489013D-01
     18  0.538616D-03  0.485914D-01  0.128344D-01 -0.100297D-01 -0.912853D-03
     19 -0.109163D-01 -0.187299D-01  0.307514D-01 -0.526904D-01 -0.657307D-01
     20  0.597322D-01  0.551917D-02  0.242977D-01  0.831824D-01  0.114211D-01
     21 -0.851046D-02  0.485511D-01 -0.243763D-01 -0.288378D-01  0.453095D-01
               16            17            18            19            20 
     16  0.692443D+00
     17  0.106383D+00  0.186362D+00
     18  0.382455D-02  0.396647D-01  0.214253D+00
     19  0.600909D-01  0.483181D-01  0.687377D-01  0.266765D+00
     20  0.466422D-02  0.296441D-01  0.206248D-01  0.129962D+00  0.441573D+00
     21 -0.776906D-02  0.266170D-01  0.270779D-01  0.102682D+00  0.221785D+00
               21 
     21  0.298912D+00
 Leave Link  716 at Sat Jun 19 00:24:11 2021, MaxMem=   134217728 cpu:               0.5 elap:               0.1
 (Enter /APL/ISV/x86_64/gaussian/16/C.01/g16/l103.exe)

 GradGradGradGradGradGradGradGradGradGradGradGradGradGradGradGradGradGrad
 Berny optimization.
 Search for a local minimum.
 Step number   1 out of a maximum of    2
 All quantities printed in internal units (Hartrees-Bohrs-Radians)
 Second derivative matrix not updated -- first step.
 ITU=  0
     Eigenvalues ---    0.03326   0.05311   0.07619   0.08353   0.10718
     Eigenvalues ---    0.12806   0.14565   0.16293   0.18145   0.53404
     Eigenvalues ---    0.86490   0.91579   1.18822   1.39894   1.67842
 Angle between quadratic step and forces=  54.57 degrees.
 Linear search not attempted -- first point.
 Variable       Old X    -DE/DX   Delta X   Delta X   Delta X     New X
                                 (Linear)    (Quad)   (Total)
    X1       -9.50870   0.00292   0.00000   0.00976   0.00976  -9.49894
    Y1      -20.16254  -0.00738   0.00000   0.00079   0.00079 -20.16176
    Z1      -10.17070  -0.00907   0.00000  -0.01821  -0.01821 -10.18891
    X2      -10.64805  -0.00051   0.00000  -0.00190  -0.00190 -10.64995
    Y2      -20.50780  -0.01333   0.00000  -0.00845  -0.00845 -20.51626
    Z2       -7.30152   0.01313   0.00000   0.00862   0.00862  -7.29290
    X3      -10.50282   0.00090   0.00000   0.00003   0.00003 -10.50279
    Y3      -22.26663   0.00665   0.00000   0.00968   0.00968 -22.25695
    Z3       -6.69960  -0.00197   0.00000   0.01735   0.01735  -6.68225
    X4      -10.89133  -0.02350   0.00000  -0.03929  -0.03929 -10.93061
    Y4      -17.53185   0.00227   0.00000   0.02114   0.02114 -17.51071
    Z4      -10.93737   0.00127   0.00000   0.01208   0.01208 -10.92529
    X5      -12.76034   0.00732   0.00000  -0.02767  -0.02767 -12.78801
    Y5      -17.71213   0.00324   0.00000   0.06630   0.06630 -17.64583
    Z5      -10.71049  -0.00206   0.00000  -0.02548  -0.02548 -10.73597
    X6       -6.65429   0.01800   0.00000   0.04051   0.04051  -6.61378
    Y6      -19.63685   0.00257   0.00000  -0.01028  -0.01028 -19.64712
    Z6      -10.20826  -0.00310   0.00000   0.01137   0.01137 -10.19689
    X7      -10.48558  -0.00284   0.00000  -0.00292  -0.00292 -10.48850
    Y7      -22.38684  -0.01483   0.00000  -0.03035  -0.03035 -22.41720
    Z7      -11.82124  -0.00599   0.00000  -0.00425  -0.00425 -11.82549
         Item               Value     Threshold  Converged?
 Maximum Force            0.023502     0.000450     NO 
 RMS     Force            0.009197     0.000300     NO 
 Maximum Displacement     0.066300     0.001800     NO 
 RMS     Displacement     0.023646     0.001200     NO 
 Predicted change in Energy=-1.323690D-03
 GradGradGradGradGradGradGradGradGradGradGradGradGradGradGradGradGradGrad

 Leave Link  103 at Sat Jun 19 00:24:11 2021, MaxMem=   134217728 cpu:               0.2 elap:               0.0
 (Enter /APL/ISV/x86_64/gaussian/16/C.01/g16/l9999.exe)

 Test job not archived.
 1\1\GINC-LEMON\Force\RB3LYP\CC-pVDZ\H2O4P1(1-)\YAGI\19-Jun-2021\0\\#P 
 B3LYP/cc-pVDZ EmpiricalDispersion=GD3 scf(conver=8) iop(4/5=100) nosym
 m Charge Force Prop=(Field,Read) pop=mk\\Gaussian run for QMMM in gene
 sis\\-1,1\P,-5.0317859824,-10.669557936,-5.3821033975\O,-5.6347070654,
 -10.8522628293,-3.8637976216\H,-5.5578526345,-11.7829910562,-3.5452744
 495\O,-5.7634423923,-9.2774539953,-5.7878056554\H,-6.752480405,-9.3728
 548886,-5.6677462298\O,-3.521298152,-10.3913720252,-5.4019772125\O,-5.
 5487302813,-11.8466081171,-6.2555290767\\Version=ES64L-G16RevC.01\HF=-
 1130.3099224\RMSD=4.790e-09\RMSF=9.197e-03\Dipole=-2.098785,0.6127871,
 1.595266\Quadrupole=149.8699466,-222.6091956,72.739249,-162.2318918,-9
 1.9170429,-245.1320746\PG=C01 [X(H2O4P1)]\\@


 THE GREAT THING ABOUT BEING IMPERFECT IS THE JOY IT BRINGS OTHERS.
   -- SIGN OUTSIDE LAKE AGASSIZ JR. HIGH SCHOOL, FARGO, N.D.
 Job cpu time:       0 days  0 hours  1 minutes  3.7 seconds.
 Elapsed time:       0 days  0 hours  0 minutes  4.6 seconds.
 File lengths (MBytes):  RWF=     10 Int=      0 D2E=      0 Chk=      2 Scr=      1
 Normal termination of Gaussian 16 at Sat Jun 19 00:24:11 2021.

real	0m4.917s
user	1m2.749s
sys	0m1.188s
