 Entering Gaussian System, Link 0=g16
 Initial command:
 /APL/ISV/x86_64/gaussian/16/C.01/g16/l1.exe "/scr/yagi/w6-b3lyp-dz.4218/Gau-4228.inp" -scrdir="/scr/yagi/w6-b3lyp-dz.4218/"
 Entering Link 1 = /APL/ISV/x86_64/gaussian/16/C.01/g16/l1.exe PID=      4229.
  
 Copyright (c) 1988-2019, Gaussian, Inc.  All Rights Reserved.
  
 This is part of the Gaussian(R) 16 program.  It is based on
 the Gaussian(R) 09 system (copyright 2009, Gaussian, Inc.),
 the Gaussian(R) 03 system (copyright 2003, Gaussian, Inc.),
 the Gaussian(R) 98 system (copyright 1998, Gaussian, Inc.),
 the Gaussian(R) 94 system (copyright 1995, Gaussian, Inc.),
 the Gaussian 92(TM) system (copyright 1992, Gaussian, Inc.),
 the Gaussian 90(TM) system (copyright 1990, Gaussian, Inc.),
 the Gaussian 88(TM) system (copyright 1988, Gaussian, Inc.),
 the Gaussian 86(TM) system (copyright 1986, Carnegie Mellon
 University), and the Gaussian 82(TM) system (copyright 1983,
 Carnegie Mellon University). Gaussian is a federally registered
 trademark of Gaussian, Inc.
  
 This software contains proprietary and confidential information,
 including trade secrets, belonging to Gaussian, Inc.
  
 This software is provided under written license and may be
 used, copied, transmitted, or stored only in accord with that
 written license.
  
 The following legend is applicable only to US Government
 contracts under FAR:
  
                    RESTRICTED RIGHTS LEGEND
  
 Use, reproduction and disclosure by the US Government is
 subject to restrictions as set forth in subparagraphs (a)
 and (c) of the Commercial Computer Software - Restricted
 Rights clause in FAR 52.227-19.
  
 Gaussian, Inc.
 340 Quinnipiac St., Bldg. 40, Wallingford CT 06492
  
  
 ---------------------------------------------------------------
 Warning -- This program may not be used in any manner that
 competes with the business of Gaussian, Inc. or will provide
 assistance to any competitor of Gaussian, Inc.  The licensee
 of this program is prohibited from giving any competitor of
 Gaussian, Inc. access to this program.  By using this program,
 the user acknowledges that Gaussian, Inc. is engaged in the
 business of creating and licensing software in the field of
 computational chemistry and represents and warrants to the
 licensee that it is not a competitor of Gaussian, Inc. and that
 it will not use this program in any manner prohibited above.
 ---------------------------------------------------------------
  

 Cite this work as:
 Gaussian 16, Revision C.01,
 M. J. Frisch, G. W. Trucks, H. B. Schlegel, G. E. Scuseria, 
 M. A. Robb, J. R. Cheeseman, G. Scalmani, V. Barone, 
 G. A. Petersson, H. Nakatsuji, X. Li, M. Caricato, A. V. Marenich, 
 J. Bloino, B. G. Janesko, R. Gomperts, B. Mennucci, H. P. Hratchian, 
 J. V. Ortiz, A. F. Izmaylov, J. L. Sonnenberg, D. Williams-Young, 
 F. Ding, F. Lipparini, F. Egidi, J. Goings, B. Peng, A. Petrone, 
 T. Henderson, D. Ranasinghe, V. G. Zakrzewski, J. Gao, N. Rega, 
 G. Zheng, W. Liang, M. Hada, M. Ehara, K. Toyota, R. Fukuda, 
 J. Hasegawa, M. Ishida, T. Nakajima, Y. Honda, O. Kitao, H. Nakai, 
 T. Vreven, K. Throssell, J. A. Montgomery, Jr., J. E. Peralta, 
 F. Ogliaro, M. J. Bearpark, J. J. Heyd, E. N. Brothers, K. N. Kudin, 
 V. N. Staroverov, T. A. Keith, R. Kobayashi, J. Normand, 
 K. Raghavachari, A. P. Rendell, J. C. Burant, S. S. Iyengar, 
 J. Tomasi, M. Cossi, J. M. Millam, M. Klene, C. Adamo, R. Cammi, 
 J. W. Ochterski, R. L. Martin, K. Morokuma, O. Farkas, 
 J. B. Foresman, and D. J. Fox, Gaussian, Inc., Wallingford CT, 2019.
 
 ******************************************
 Gaussian 16:  ES64L-G16RevC.01  3-Jul-2019
                18-Jun-2021 
 ******************************************
 %chk=w6-b3lyp-dz.chk
 %mem=1gb
 -------------------------
 #p b3lyp/cc-pvdz opt freq
 -------------------------
 1/18=20,19=15,26=3,38=1/1,3;
 2/9=110,12=2,17=6,18=5,40=1/2;
 3/5=16,11=2,25=1,30=1,71=1,74=-5/1,2,3;
 4//1;
 5/5=2,38=5/2;
 6/7=2,8=2,9=2,10=2,28=1/1;
 7//1,2,3,16;
 1/18=20,19=15,26=3/3(2);
 2/9=110/2;
 99//99;
 2/9=110/2;
 3/5=16,11=2,25=1,30=1,71=1,74=-5/1,2,3;
 4/5=5,16=3,69=1/1;
 5/5=2,38=5/2;
 7//1,2,3,16;
 1/18=20,19=15,26=3/3(-5);
 2/9=110/2;
 6/7=2,8=2,9=2,10=2,19=2,28=1/1;
 99/9=1/99;
 Leave Link    1 at Fri Jun 18 03:58:53 2021, MaxMem=   134217728 cpu:               0.0 elap:               0.0
 (Enter /APL/ISV/x86_64/gaussian/16/C.01/g16/l101.exe)
 -------------------------------
 (H2O)6 b3lyp/cc-pvdz (opt/freq)
 -------------------------------
 Symbolic Z-matrix:
 Charge =  0 Multiplicity = 1
 O                     0.09762   1.52119   0.80204 
 H                     0.9496    1.48553   0.28306 
 H                     0.28557   2.08881   1.56548 
 O                    -0.02428  -1.36844   0.96654 
 H                    -0.03594  -0.40261   1.11924 
 H                    -0.84655  -1.52756   0.4472 
 O                    -2.41482   1.40856  -0.42943 
 H                    -1.54324   1.55631   0.0026 
 H                    -2.32698   1.80471  -1.30945 
 O                    -2.43943  -1.37996  -0.46048 
 H                    -2.52327  -0.39894  -0.51901 
 H                    -3.16952  -1.65024   0.11691 
 O                     2.44793   1.2012   -0.47876 
 H                     2.51303   0.20738  -0.46247 
 H                     2.48543   1.42875  -1.42037 
 O                     2.28499  -1.50041  -0.44061 
 H                     1.40458  -1.57084   0.02161 
 H                     2.89807  -1.9836    0.13395 
 
 Add virtual bond connecting atoms O13        and H2         Dist= 3.22D+00.
 Add virtual bond connecting atoms O16        and H14        Dist= 3.26D+00.
 Add virtual bond connecting atoms H17        and O4         Dist= 3.26D+00.
 Add virtual bond connecting atoms H11        and O7         Dist= 3.43D+00.
 Add virtual bond connecting atoms H8         and O1         Dist= 3.45D+00.
 Add virtual bond connecting atoms O10        and H6         Dist= 3.48D+00.
 ITRead=  0  0  0  0  0  0  0  0  0  0  0  0  0  0  0  0  0  0
 MicOpt= -1 -1 -1 -1 -1 -1 -1 -1 -1 -1 -1 -1 -1 -1 -1 -1 -1 -1
 NAtoms=     18 NQM=       18 NQMF=       0 NMMI=      0 NMMIF=      0
                NMic=       0 NMicF=      0.
                    Isotopes and Nuclear Properties:
 (Nuclear quadrupole moments (NQMom) in fm**2, nuclear magnetic moments (NMagM)
  in nuclear magnetons)

  Atom         1           2           3           4           5           6           7           8           9          10
 IAtWgt=          16           1           1          16           1           1          16           1           1          16
 AtmWgt=  15.9949146   1.0078250   1.0078250  15.9949146   1.0078250   1.0078250  15.9949146   1.0078250   1.0078250  15.9949146
 NucSpn=           0           1           1           0           1           1           0           1           1           0
 AtZEff=  -0.0000000  -0.0000000  -0.0000000  -0.0000000  -0.0000000  -0.0000000  -0.0000000  -0.0000000  -0.0000000  -0.0000000
 NQMom=    0.0000000   0.0000000   0.0000000   0.0000000   0.0000000   0.0000000   0.0000000   0.0000000   0.0000000   0.0000000
 NMagM=    0.0000000   2.7928460   2.7928460   0.0000000   2.7928460   2.7928460   0.0000000   2.7928460   2.7928460   0.0000000
 AtZNuc=   8.0000000   1.0000000   1.0000000   8.0000000   1.0000000   1.0000000   8.0000000   1.0000000   1.0000000   8.0000000

  Atom        11          12          13          14          15          16          17          18
 IAtWgt=           1           1          16           1           1          16           1           1
 AtmWgt=   1.0078250   1.0078250  15.9949146   1.0078250   1.0078250  15.9949146   1.0078250   1.0078250
 NucSpn=           1           1           0           1           1           0           1           1
 AtZEff=  -0.0000000  -0.0000000  -0.0000000  -0.0000000  -0.0000000  -0.0000000  -0.0000000  -0.0000000
 NQMom=    0.0000000   0.0000000   0.0000000   0.0000000   0.0000000   0.0000000   0.0000000   0.0000000
 NMagM=    2.7928460   2.7928460   0.0000000   2.7928460   2.7928460   0.0000000   2.7928460   2.7928460
 AtZNuc=   1.0000000   1.0000000   8.0000000   1.0000000   1.0000000   8.0000000   1.0000000   1.0000000
 Leave Link  101 at Fri Jun 18 03:58:53 2021, MaxMem=   134217728 cpu:               0.1 elap:               0.1
 (Enter /APL/ISV/x86_64/gaussian/16/C.01/g16/l103.exe)

 GradGradGradGradGradGradGradGradGradGradGradGradGradGradGradGradGradGrad
 Berny optimization.
 Initialization pass.
                           ----------------------------
                           !    Initial Parameters    !
                           ! (Angstroms and Degrees)  !
 --------------------------                            --------------------------
 ! Name  Definition              Value          Derivative Info.                !
 --------------------------------------------------------------------------------
 ! R1    R(1,2)                  0.9982         estimate D2E/DX2                !
 ! R2    R(1,3)                  0.9697         estimate D2E/DX2                !
 ! R3    R(1,8)                  1.8256         estimate D2E/DX2                !
 ! R4    R(2,13)                 1.7048         estimate D2E/DX2                !
 ! R5    R(4,5)                  0.9779         estimate D2E/DX2                !
 ! R6    R(4,6)                  0.9855         estimate D2E/DX2                !
 ! R7    R(4,17)                 1.725          estimate D2E/DX2                !
 ! R8    R(6,10)                 1.8393         estimate D2E/DX2                !
 ! R9    R(7,8)                  0.9839         estimate D2E/DX2                !
 ! R10   R(7,9)                  0.9691         estimate D2E/DX2                !
 ! R11   R(7,11)                 1.813          estimate D2E/DX2                !
 ! R12   R(10,11)                0.9863         estimate D2E/DX2                !
 ! R13   R(10,12)                0.9692         estimate D2E/DX2                !
 ! R14   R(13,14)                0.9961         estimate D2E/DX2                !
 ! R15   R(13,15)                0.9694         estimate D2E/DX2                !
 ! R16   R(14,16)                1.7231         estimate D2E/DX2                !
 ! R17   R(16,17)                0.9969         estimate D2E/DX2                !
 ! R18   R(16,18)                0.9693         estimate D2E/DX2                !
 ! A1    A(2,1,3)              105.3547         estimate D2E/DX2                !
 ! A2    A(2,1,8)              122.693          estimate D2E/DX2                !
 ! A3    A(3,1,8)              120.5114         estimate D2E/DX2                !
 ! A4    A(5,4,6)              103.404          estimate D2E/DX2                !
 ! A5    A(5,4,17)             102.1989         estimate D2E/DX2                !
 ! A6    A(6,4,17)             112.5522         estimate D2E/DX2                !
 ! A7    A(8,7,9)              104.8948         estimate D2E/DX2                !
 ! A8    A(8,7,11)             102.9675         estimate D2E/DX2                !
 ! A9    A(9,7,11)             111.5996         estimate D2E/DX2                !
 ! A10   A(6,10,11)            100.5279         estimate D2E/DX2                !
 ! A11   A(6,10,12)            109.6328         estimate D2E/DX2                !
 ! A12   A(11,10,12)           104.3987         estimate D2E/DX2                !
 ! A13   A(2,13,14)            102.5057         estimate D2E/DX2                !
 ! A14   A(2,13,15)            115.3974         estimate D2E/DX2                !
 ! A15   A(14,13,15)           104.3329         estimate D2E/DX2                !
 ! A16   A(14,16,17)           101.1157         estimate D2E/DX2                !
 ! A17   A(14,16,18)           114.702          estimate D2E/DX2                !
 ! A18   A(17,16,18)           104.3926         estimate D2E/DX2                !
 ! A19   L(1,2,13,4,-1)        172.2726         estimate D2E/DX2                !
 ! A20   L(4,6,10,8,-1)        166.1249         estimate D2E/DX2                !
 ! A21   L(1,8,7,6,-1)         170.2768         estimate D2E/DX2                !
 ! A22   L(7,11,10,5,-1)       169.6276         estimate D2E/DX2                !
 ! A23   L(13,14,16,5,-1)      170.4766         estimate D2E/DX2                !
 ! A24   L(4,17,16,2,-1)       169.2228         estimate D2E/DX2                !
 ! A25   L(1,2,13,4,-2)        184.2381         estimate D2E/DX2                !
 ! A26   L(4,6,10,8,-2)        182.769          estimate D2E/DX2                !
 ! A27   L(1,8,7,6,-2)         180.6891         estimate D2E/DX2                !
 ! A28   L(7,11,10,5,-2)       179.3579         estimate D2E/DX2                !
 ! A29   L(13,14,16,5,-2)      173.6323         estimate D2E/DX2                !
 ! A30   L(4,17,16,2,-2)       174.0889         estimate D2E/DX2                !
 ! D1    D(2,1,7,9)            -30.1138         estimate D2E/DX2                !
 ! D2    D(2,1,7,11)            85.0671         estimate D2E/DX2                !
 ! D3    D(3,1,7,9)            111.5647         estimate D2E/DX2                !
 ! D4    D(3,1,7,11)          -133.2545         estimate D2E/DX2                !
 ! D5    D(3,1,13,14)          122.7222         estimate D2E/DX2                !
 ! D6    D(3,1,13,15)         -125.3196         estimate D2E/DX2                !
 ! D7    D(8,1,13,14)          -89.161          estimate D2E/DX2                !
 ! D8    D(8,1,13,15)           22.7972         estimate D2E/DX2                !
 ! D9    D(5,4,10,11)            8.5509         estimate D2E/DX2                !
 ! D10   D(5,4,10,12)          -99.1044         estimate D2E/DX2                !
 ! D11   D(17,4,10,11)         -97.146          estimate D2E/DX2                !
 ! D12   D(17,4,10,12)         155.1986         estimate D2E/DX2                !
 ! D13   D(5,4,16,14)           -4.0416         estimate D2E/DX2                !
 ! D14   D(5,4,16,18)          112.8459         estimate D2E/DX2                !
 ! D15   D(6,4,16,14)          105.006          estimate D2E/DX2                !
 ! D16   D(6,4,16,18)         -138.1065         estimate D2E/DX2                !
 ! D17   D(8,7,10,6)             3.3866         estimate D2E/DX2                !
 ! D18   D(8,7,10,12)          115.1136         estimate D2E/DX2                !
 ! D19   D(9,7,10,6)           114.2475         estimate D2E/DX2                !
 ! D20   D(9,7,10,12)         -134.0256         estimate D2E/DX2                !
 ! D21   D(2,13,16,17)          -0.9552         estimate D2E/DX2                !
 ! D22   D(2,13,16,18)        -111.6369         estimate D2E/DX2                !
 ! D23   D(15,13,16,17)       -119.2141         estimate D2E/DX2                !
 ! D24   D(15,13,16,18)        130.1041         estimate D2E/DX2                !
 --------------------------------------------------------------------------------
 Trust Radius=3.00D-01 FncErr=1.00D-07 GrdErr=1.00D-06 EigMax=2.50D+02 EigMin=1.00D-04
 Number of steps in this run=     82 maximum allowed number of steps=    108.
 GradGradGradGradGradGradGradGradGradGradGradGradGradGradGradGradGradGrad

 Leave Link  103 at Fri Jun 18 03:58:53 2021, MaxMem=   134217728 cpu:               0.0 elap:               0.0
 (Enter /APL/ISV/x86_64/gaussian/16/C.01/g16/l202.exe)
                          Input orientation:                          
 ---------------------------------------------------------------------
 Center     Atomic      Atomic             Coordinates (Angstroms)
 Number     Number       Type             X           Y           Z
 ---------------------------------------------------------------------
      1          8           0        0.097619    1.521194    0.802041
      2          1           0        0.949600    1.485530    0.283055
      3          1           0        0.285574    2.088806    1.565481
      4          8           0       -0.024281   -1.368435    0.966542
      5          1           0       -0.035941   -0.402608    1.119240
      6          1           0       -0.846547   -1.527555    0.447204
      7          8           0       -2.414823    1.408560   -0.429428
      8          1           0       -1.543240    1.556314    0.002600
      9          1           0       -2.326976    1.804713   -1.309445
     10          8           0       -2.439433   -1.379963   -0.460475
     11          1           0       -2.523275   -0.398938   -0.519010
     12          1           0       -3.169518   -1.650235    0.116905
     13          8           0        2.447931    1.201195   -0.478763
     14          1           0        2.513025    0.207382   -0.462470
     15          1           0        2.485430    1.428749   -1.420366
     16          8           0        2.284985   -1.500412   -0.440607
     17          1           0        1.404581   -1.570840    0.021607
     18          1           0        2.898070   -1.983600    0.133950
 ---------------------------------------------------------------------
                    Distance matrix (angstroms):
                    1          2          3          4          5
     1  O    0.000000
     2  H    0.998243   0.000000
     3  H    0.969717   1.565084   0.000000
     4  O    2.896873   3.092041   3.522393   0.000000
     5  H    1.954346   2.288135   2.551401   0.977893   0.000000
     6  H    3.211266   3.511662   3.950988   0.985471   1.540850
     7  O    2.800280   3.439898   3.425572   3.921113   3.367162
     8  H    1.825584   2.509565   2.463880   3.433741   2.712234
     9  H    3.227602   3.657032   3.895039   4.533364   4.002452
    10  O    4.055526   4.499937   4.854124   2.805257   3.037679
    11  H    3.507302   4.031797   4.292273   3.064598   2.978373
    12  H    4.604515   5.179552   5.293058   3.270139   3.518601
    13  O    2.695705   1.704761   3.105250   3.847562   3.360866
    14  H    3.026430   2.152619   3.551602   3.311072   3.061229
    15  H    3.263324   2.294263   3.767005   4.451990   4.020047
    16  O    3.931774   3.350043   4.572146   2.707433   3.004163
    17  H    3.446433   3.101090   4.126588   1.724969   2.155149
    18  H    4.535687   3.981662   5.045682   3.100286   3.475450
                    6          7          8          9         10
     6  H    0.000000
     7  O    3.442201   0.000000
     8  H    3.192695   0.983939   0.000000
     9  H    4.047406   0.969064   1.548356   0.000000
    10  O    1.839280   2.788804   3.104726   3.297811   0.000000
    11  H    2.240259   1.812963   2.248456   2.349340   0.986340
    12  H    2.349541   3.197541   3.597194   3.831582   0.969246
    13  O    4.376880   4.867423   4.035748   4.884056   5.527118
    14  H    3.888989   5.072239   4.299906   5.166666   5.200626
    15  H    4.830075   4.999484   4.274493   4.828344   5.750176
    16  O    3.255063   5.527245   4.918873   5.740115   4.725995
    17  H    2.291415   4.864988   4.297569   5.204861   3.878825
    18  H    3.785269   6.328584   5.680975   6.613306   5.404318
                   11         12         13         14         15
    11  H    0.000000
    12  H    1.545239   0.000000
    13  O    5.222541   6.327812   0.000000
    14  H    5.072981   6.006472   0.996076   0.000000
    15  H    5.407403   6.619802   0.969434   1.552438   0.000000
    16  O    4.933432   5.484968   2.706785   1.723090   3.095172
    17  H    4.134450   4.575780   3.003852   2.150593   3.499293
    18  H    5.685815   6.076763   3.274288   2.303124   3.772306
                   16         17         18
    16  O    0.000000
    17  H    0.996852   0.000000
    18  H    0.969257   1.553545   0.000000
 Stoichiometry    H12O6
 Framework group  C1[X(H12O6)]
 Deg. of freedom    48
 Full point group                 C1      NOp   1
 Largest Abelian subgroup         C1      NOp   1
 Largest concise Abelian subgroup C1      NOp   1
                         Standard orientation:                         
 ---------------------------------------------------------------------
 Center     Atomic      Atomic             Coordinates (Angstroms)
 Number     Number       Type             X           Y           Z
 ---------------------------------------------------------------------
      1          8           0       -0.054457   -1.503567    0.841800
      2          1           0       -0.906231   -1.507353    0.321263
      3          1           0       -0.225200   -2.059660    1.617659
      4          8           0       -0.026886    1.391470    0.941178
      5          1           0        0.015908    0.430218    1.115644
      6          1           0        0.790685    1.565537    0.419230
      7          8           0        2.455161   -1.336968   -0.389308
      8          1           0        1.588084   -1.503249    0.045046
      9          1           0        2.381797   -1.755488   -1.260252
     10          8           0        2.389127    1.449472   -0.483246
     11          1           0        2.504932    0.470627   -0.519542
     12          1           0        3.109017    1.756301    0.088640
     13          8           0       -2.411670   -1.289172   -0.448320
     14          1           0       -2.509078   -0.297890   -0.454525
     15          1           0       -2.440087   -1.538973   -1.384587
     16          8           0       -2.336737    1.416482   -0.470969
     17          1           0       -1.459906    1.525923   -0.009555
     18          1           0       -2.966224    1.892272    0.091906
 ---------------------------------------------------------------------
 Rotational constants (GHZ):           1.9364014           1.0893138           0.8000170
 Leave Link  202 at Fri Jun 18 03:58:53 2021, MaxMem=   134217728 cpu:               0.0 elap:               0.0
 (Enter /APL/ISV/x86_64/gaussian/16/C.01/g16/l301.exe)
 Standard basis: CC-pVDZ (5D, 7F)
 Ernie: Thresh=  0.10000D-02 Tol=  0.10000D-05 Strict=F.
 Ernie:  12 primitive shells out of 192 were deleted.
 There are   150 symmetry adapted cartesian basis functions of A   symmetry.
 There are   144 symmetry adapted basis functions of A   symmetry.
   144 basis functions,   282 primitive gaussians,   150 cartesian basis functions
    30 alpha electrons       30 beta electrons
       nuclear repulsion energy       284.3944347789 Hartrees.
 IExCor=  402 DFT=T Ex+Corr=B3LYP ExCW=0 ScaHFX=  0.200000
 ScaDFX=  0.800000  0.720000  1.000000  0.810000 ScalE2=  1.000000  1.000000
 IRadAn=      5 IRanWt=     -1 IRanGd=            0 ICorTp=0 IEmpDi=  4
 NAtoms=   18 NActive=   18 NUniq=   18 SFac= 1.00D+00 NAtFMM=   60 NAOKFM=F Big=F
 Integral buffers will be    131072 words long.
 Raffenetti 2 integral format.
 Two-electron integral symmetry is turned on.
 Leave Link  301 at Fri Jun 18 03:58:53 2021, MaxMem=   134217728 cpu:               0.1 elap:               0.1
 (Enter /APL/ISV/x86_64/gaussian/16/C.01/g16/l302.exe)
 NPDir=0 NMtPBC=     1 NCelOv=     1 NCel=       1 NClECP=     1 NCelD=      1
         NCelK=      1 NCelE2=     1 NClLst=     1 CellRange=     0.0.
 One-electron integrals computed using PRISM.
 One-electron integral symmetry used in STVInt
 NBasis=   144 RedAO= T EigKep=  2.63D-02  NBF=   144
 NBsUse=   144 1.00D-06 EigRej= -1.00D+00 NBFU=   144
 Precomputing XC quadrature grid using
 IXCGrd= 4 IRadAn=           5 IRanWt=          -1 IRanGd=           0 AccXCQ= 0.00D+00.
 Generated NRdTot=       0 NPtTot=           0 NUsed=           0 NTot=          32
 NSgBfM=   150   150   150   150   150 MxSgAt=    18 MxSgA2=    18.
 Leave Link  302 at Fri Jun 18 03:58:53 2021, MaxMem=   134217728 cpu:               0.4 elap:               0.4
 (Enter /APL/ISV/x86_64/gaussian/16/C.01/g16/l303.exe)
 DipDrv:  MaxL=1.
 Leave Link  303 at Fri Jun 18 03:58:53 2021, MaxMem=   134217728 cpu:               0.0 elap:               0.0
 (Enter /APL/ISV/x86_64/gaussian/16/C.01/g16/l401.exe)
 ExpMin= 1.22D-01 ExpMax= 1.17D+04 ExpMxC= 4.01D+02 IAcc=3 IRadAn=         5 AccDes= 0.00D+00
 Harris functional with IExCor=  402 and IRadAn=       5 diagonalized for initial guess.
 HarFok:  IExCor=  402 AccDes= 0.00D+00 IRadAn=         5 IDoV= 1 UseB2=F ITyADJ=14
 ICtDFT=  3500011 ScaDFX=  1.000000  1.000000  1.000000  1.000000
 FoFCou: FMM=F IPFlag=           0 FMFlag=      100000 FMFlg1=           0
         NFxFlg=           0 DoJE=T BraDBF=F KetDBF=T FulRan=T
         wScrn=  0.000000 ICntrl=       500 IOpCl=  0 I1Cent=   200000004 NGrid=           0
         NMat0=    1 NMatS0=      1 NMatT0=    0 NMatD0=    1 NMtDS0=    0 NMtDT0=    0
 Petite list used in FoFCou.
 Harris En= -458.773534586426    
 JPrj=0 DoOrth=F DoCkMO=F.
 Leave Link  401 at Fri Jun 18 03:58:56 2021, MaxMem=   134217728 cpu:               2.3 elap:               2.3
 (Enter /APL/ISV/x86_64/gaussian/16/C.01/g16/l502.exe)
 Keep R1 ints in memory in canonical form, NReq=56224937.
 FoFCou: FMM=F IPFlag=           0 FMFlag=           0 FMFlg1=           0
         NFxFlg=           0 DoJE=F BraDBF=F KetDBF=F FulRan=T
         wScrn=  0.000000 ICntrl=       600 IOpCl=  0 I1Cent=           0 NGrid=           0
         NMat0=    1 NMatS0=  10440 NMatT0=    0 NMatD0=    1 NMtDS0=    0 NMtDT0=    0
 Symmetry not used in FoFCou.
 Two-electron integral symmetry not used.
 Closed shell SCF:
 Using DIIS extrapolation, IDIIS=  1040.
 NGot=   134217728 LenX=    79667590 LenY=    79644649
 Requested convergence on RMS density matrix=1.00D-08 within 128 cycles.
 Requested convergence on MAX density matrix=1.00D-06.
 Requested convergence on             energy=1.00D-06.
 No special actions if energy rises.
 Integral accuracy reduced to 1.0D-05 until final iterations.

 Cycle   1  Pass 0  IDiag  1:
 E= -458.269385670132    
 DIIS: error= 3.27D-02 at cycle   1 NSaved=   1.
 NSaved= 1 IEnMin= 1 EnMin= -458.269385670132     IErMin= 1 ErrMin= 3.27D-02
 ErrMax= 3.27D-02  0.00D+00 EMaxC= 1.00D-01 BMatC= 5.15D-01 BMatP= 5.15D-01
 IDIUse=3 WtCom= 6.73D-01 WtEn= 3.27D-01
 Coeff-Com:  0.100D+01
 Coeff-En:   0.100D+01
 Coeff:      0.100D+01
 Gap=     0.196 Goal=   None    Shift=    0.000
 GapD=    0.196 DampG=1.000 DampE=0.500 DampFc=0.5000 IDamp=-1.
 Damping current iteration by 5.00D-01
 RMSDP=7.29D-03 MaxDP=1.54D-01              OVMax= 1.73D-01

 Cycle   2  Pass 0  IDiag  1:
 E= -458.407472718896     Delta-E=       -0.138087048765 Rises=F Damp=T
 DIIS: error= 7.09D-03 at cycle   2 NSaved=   2.
 NSaved= 2 IEnMin= 2 EnMin= -458.407472718896     IErMin= 2 ErrMin= 7.09D-03
 ErrMax= 7.09D-03  0.00D+00 EMaxC= 1.00D-01 BMatC= 2.16D-02 BMatP= 5.15D-01
 IDIUse=3 WtCom= 9.29D-01 WtEn= 7.09D-02
 Coeff-Com:  0.157D+00 0.843D+00
 Coeff-En:   0.268D+00 0.732D+00
 Coeff:      0.165D+00 0.835D+00
 Gap=     0.294 Goal=   None    Shift=    0.000
 RMSDP=7.86D-04 MaxDP=1.57D-02 DE=-1.38D-01 OVMax= 9.74D-02

 Cycle   3  Pass 0  IDiag  1:
 E= -458.640949749642     Delta-E=       -0.233477030746 Rises=F Damp=F
 DIIS: error= 6.86D-04 at cycle   3 NSaved=   3.
 NSaved= 3 IEnMin= 3 EnMin= -458.640949749642     IErMin= 3 ErrMin= 6.86D-04
 ErrMax= 6.86D-04  0.00D+00 EMaxC= 1.00D-01 BMatC= 1.73D-04 BMatP= 2.16D-02
 IDIUse=3 WtCom= 9.93D-01 WtEn= 6.86D-03
 Coeff-Com:  0.149D-01 0.284D-01 0.957D+00
 Coeff-En:   0.000D+00 0.000D+00 0.100D+01
 Coeff:      0.148D-01 0.282D-01 0.957D+00
 Gap=     0.308 Goal=   None    Shift=    0.000
 RMSDP=1.07D-04 MaxDP=4.30D-03 DE=-2.33D-01 OVMax= 4.59D-03

 Cycle   4  Pass 0  IDiag  1:
 E= -458.640953243278     Delta-E=       -0.000003493636 Rises=F Damp=F
 DIIS: error= 6.71D-04 at cycle   4 NSaved=   4.
 NSaved= 4 IEnMin= 4 EnMin= -458.640953243278     IErMin= 4 ErrMin= 6.71D-04
 ErrMax= 6.71D-04  0.00D+00 EMaxC= 1.00D-01 BMatC= 1.69D-04 BMatP= 1.73D-04
 IDIUse=3 WtCom= 9.93D-01 WtEn= 6.71D-03
 Coeff-Com:  0.447D-02-0.806D-02 0.544D+00 0.460D+00
 Coeff-En:   0.000D+00 0.000D+00 0.492D+00 0.508D+00
 Coeff:      0.444D-02-0.801D-02 0.543D+00 0.460D+00
 Gap=     0.305 Goal=   None    Shift=    0.000
 RMSDP=6.12D-05 MaxDP=2.48D-03 DE=-3.49D-06 OVMax= 2.57D-03

 Cycle   5  Pass 0  IDiag  1:
 E= -458.641070505330     Delta-E=       -0.000117262052 Rises=F Damp=F
 DIIS: error= 1.00D-04 at cycle   5 NSaved=   5.
 NSaved= 5 IEnMin= 5 EnMin= -458.641070505330     IErMin= 5 ErrMin= 1.00D-04
 ErrMax= 1.00D-04  0.00D+00 EMaxC= 1.00D-01 BMatC= 3.63D-06 BMatP= 1.69D-04
 IDIUse=3 WtCom= 9.99D-01 WtEn= 1.00D-03
 Coeff-Com:  0.789D-03-0.649D-02 0.139D+00 0.180D+00 0.687D+00
 Coeff-En:   0.000D+00 0.000D+00 0.000D+00 0.000D+00 0.100D+01
 Coeff:      0.788D-03-0.648D-02 0.139D+00 0.180D+00 0.687D+00
 Gap=     0.305 Goal=   None    Shift=    0.000
 RMSDP=8.45D-06 MaxDP=3.38D-04 DE=-1.17D-04 OVMax= 3.73D-04

 Initial convergence to 1.0D-05 achieved.  Increase integral accuracy.
 Cycle   6  Pass 1  IDiag  1:
 E= -458.641065173919     Delta-E=        0.000005331411 Rises=F Damp=F
 DIIS: error= 1.98D-05 at cycle   1 NSaved=   1.
 NSaved= 1 IEnMin= 1 EnMin= -458.641065173919     IErMin= 1 ErrMin= 1.98D-05
 ErrMax= 1.98D-05  0.00D+00 EMaxC= 1.00D-01 BMatC= 1.56D-07 BMatP= 1.56D-07
 IDIUse=1 WtCom= 1.00D+00 WtEn= 0.00D+00
 Coeff-Com:  0.100D+01
 Coeff:      0.100D+01
 Gap=     0.305 Goal=   None    Shift=    0.000
 RMSDP=8.45D-06 MaxDP=3.38D-04 DE= 5.33D-06 OVMax= 1.64D-04

 Cycle   7  Pass 1  IDiag  1:
 E= -458.641065017469     Delta-E=        0.000000156450 Rises=F Damp=F
 DIIS: error= 3.16D-05 at cycle   2 NSaved=   2.
 NSaved= 2 IEnMin= 1 EnMin= -458.641065173919     IErMin= 1 ErrMin= 1.98D-05
 ErrMax= 3.16D-05  0.00D+00 EMaxC= 1.00D-01 BMatC= 3.78D-07 BMatP= 1.56D-07
 IDIUse=1 WtCom= 1.00D+00 WtEn= 0.00D+00
 Coeff-Com:  0.610D+00 0.390D+00
 Coeff:      0.610D+00 0.390D+00
 Gap=     0.305 Goal=   None    Shift=    0.000
 RMSDP=2.66D-06 MaxDP=9.65D-05 DE= 1.56D-07 OVMax= 9.57D-05

 Cycle   8  Pass 1  IDiag  1:
 E= -458.641065286129     Delta-E=       -0.000000268659 Rises=F Damp=F
 DIIS: error= 1.28D-06 at cycle   3 NSaved=   3.
 NSaved= 3 IEnMin= 3 EnMin= -458.641065286129     IErMin= 3 ErrMin= 1.28D-06
 ErrMax= 1.28D-06  0.00D+00 EMaxC= 1.00D-01 BMatC= 7.69D-10 BMatP= 1.56D-07
 IDIUse=1 WtCom= 1.00D+00 WtEn= 0.00D+00
 Coeff-Com:  0.262D+00 0.171D+00 0.566D+00
 Coeff:      0.262D+00 0.171D+00 0.566D+00
 Gap=     0.305 Goal=   None    Shift=    0.000
 RMSDP=1.63D-07 MaxDP=5.22D-06 DE=-2.69D-07 OVMax= 5.05D-06

 Cycle   9  Pass 1  IDiag  1:
 E= -458.641065286602     Delta-E=       -0.000000000473 Rises=F Damp=F
 DIIS: error= 5.12D-07 at cycle   4 NSaved=   4.
 NSaved= 4 IEnMin= 4 EnMin= -458.641065286602     IErMin= 4 ErrMin= 5.12D-07
 ErrMax= 5.12D-07  0.00D+00 EMaxC= 1.00D-01 BMatC= 1.20D-10 BMatP= 7.69D-10
 IDIUse=1 WtCom= 1.00D+00 WtEn= 0.00D+00
 Coeff-Com:  0.151D-01 0.109D-01 0.284D+00 0.690D+00
 Coeff:      0.151D-01 0.109D-01 0.284D+00 0.690D+00
 Gap=     0.305 Goal=   None    Shift=    0.000
 RMSDP=5.48D-08 MaxDP=1.78D-06 DE=-4.73D-10 OVMax= 2.09D-06

 Cycle  10  Pass 1  IDiag  1:
 E= -458.641065286687     Delta-E=       -0.000000000085 Rises=F Damp=F
 DIIS: error= 7.94D-08 at cycle   5 NSaved=   5.
 NSaved= 5 IEnMin= 5 EnMin= -458.641065286687     IErMin= 5 ErrMin= 7.94D-08
 ErrMax= 7.94D-08  0.00D+00 EMaxC= 1.00D-01 BMatC= 2.45D-12 BMatP= 1.20D-10
 IDIUse=1 WtCom= 1.00D+00 WtEn= 0.00D+00
 Coeff-Com: -0.853D-02-0.521D-02 0.659D-01 0.228D+00 0.720D+00
 Coeff:     -0.853D-02-0.521D-02 0.659D-01 0.228D+00 0.720D+00
 Gap=     0.305 Goal=   None    Shift=    0.000
 RMSDP=9.64D-09 MaxDP=2.70D-07 DE=-8.48D-11 OVMax= 3.00D-07

 SCF Done:  E(RB3LYP) =  -458.641065287     A.U. after   10 cycles
            NFock= 10  Conv=0.96D-08     -V/T= 2.0058
 KE= 4.559989174711D+02 PE=-1.653695661926D+03 EE= 4.546612443895D+02
 Leave Link  502 at Fri Jun 18 03:59:16 2021, MaxMem=   134217728 cpu:              20.4 elap:              20.4
 (Enter /APL/ISV/x86_64/gaussian/16/C.01/g16/l601.exe)
 Copying SCF densities to generalized density rwf, IOpCl= 0 IROHF=0.

 **********************************************************************

            Population analysis using the SCF Density.

 **********************************************************************

 Orbital symmetries:
       Occupied  (A) (A) (A) (A) (A) (A) (A) (A) (A) (A) (A) (A)
                 (A) (A) (A) (A) (A) (A) (A) (A) (A) (A) (A) (A)
                 (A) (A) (A) (A) (A) (A)
       Virtual   (A) (A) (A) (A) (A) (A) (A) (A) (A) (A) (A) (A)
                 (A) (A) (A) (A) (A) (A) (A) (A) (A) (A) (A) (A)
                 (A) (A) (A) (A) (A) (A) (A) (A) (A) (A) (A) (A)
                 (A) (A) (A) (A) (A) (A) (A) (A) (A) (A) (A) (A)
                 (A) (A) (A) (A) (A) (A) (A) (A) (A) (A) (A) (A)
                 (A) (A) (A) (A) (A) (A) (A) (A) (A) (A) (A) (A)
                 (A) (A) (A) (A) (A) (A) (A) (A) (A) (A) (A) (A)
                 (A) (A) (A) (A) (A) (A) (A) (A) (A) (A) (A) (A)
                 (A) (A) (A) (A) (A) (A) (A) (A) (A) (A) (A) (A)
                 (A) (A) (A) (A) (A) (A)
 The electronic state is 1-A.
 Alpha  occ. eigenvalues --  -19.15273 -19.13643 -19.13522 -19.12268 -19.12233
 Alpha  occ. eigenvalues --  -19.10761  -1.01909  -1.00263  -0.99803  -0.98762
 Alpha  occ. eigenvalues --   -0.98330  -0.96619  -0.53678  -0.52359  -0.51814
 Alpha  occ. eigenvalues --   -0.50652  -0.50394  -0.49027  -0.42625  -0.39798
 Alpha  occ. eigenvalues --   -0.38563  -0.37556  -0.36318  -0.34274  -0.31915
 Alpha  occ. eigenvalues --   -0.30642  -0.30322  -0.29353  -0.28808  -0.27911
 Alpha virt. eigenvalues --    0.02554   0.05804   0.07006   0.08314   0.08947
 Alpha virt. eigenvalues --    0.15409   0.20604   0.21729   0.23465   0.24505
 Alpha virt. eigenvalues --    0.26459   0.28618   0.47670   0.51273   0.53882
 Alpha virt. eigenvalues --    0.55058   0.55338   0.56818   0.58457   0.59806
 Alpha virt. eigenvalues --    0.61304   0.61697   0.61810   0.65713   0.84008
 Alpha virt. eigenvalues --    0.85991   0.89674   0.90449   0.91021   0.94496
 Alpha virt. eigenvalues --    0.96065   0.97142   0.97813   0.99528   1.01147
 Alpha virt. eigenvalues --    1.03696   1.03766   1.05328   1.07330   1.08827
 Alpha virt. eigenvalues --    1.15388   1.18029   1.18362   1.20505   1.21908
 Alpha virt. eigenvalues --    1.24122   1.24636   1.25396   1.26093   1.28135
 Alpha virt. eigenvalues --    1.29260   1.32845   1.36301   1.39745   1.44736
 Alpha virt. eigenvalues --    1.46880   1.47819   1.48375   1.49204   1.52093
 Alpha virt. eigenvalues --    1.58438   1.62308   1.63437   1.65912   1.66133
 Alpha virt. eigenvalues --    1.68034   1.71274   1.73068   1.73655   1.76132
 Alpha virt. eigenvalues --    1.78035   1.81877   2.07779   2.09519   2.10386
 Alpha virt. eigenvalues --    2.11652   2.11863   2.29660   2.36438   2.40432
 Alpha virt. eigenvalues --    2.43760   2.45380   2.47080   2.51244   2.86292
 Alpha virt. eigenvalues --    2.88147   2.88460   2.89027   2.89746   2.91535
 Alpha virt. eigenvalues --    2.93434   2.94271   2.97419   2.97731   2.98771
 Alpha virt. eigenvalues --    3.01851   3.08936   3.10899   3.11051   3.12617
 Alpha virt. eigenvalues --    3.13305   3.16137   3.42165   3.45650   3.47059
 Alpha virt. eigenvalues --    3.49361   3.50567   3.53765   3.73306   3.74596
 Alpha virt. eigenvalues --    3.74870   3.75115   3.76903   3.79502
          Condensed to atoms (all electrons):
               1          2          3          4          5          6
     1  O    7.558377   0.305842   0.337559  -0.011823   0.062016  -0.001256
     2  H    0.305842   0.487432  -0.023691   0.002928  -0.006391   0.000130
     3  H    0.337559  -0.023691   0.538097   0.000399  -0.002499  -0.000019
     4  O   -0.011823   0.002928   0.000399   7.598423   0.331859   0.334404
     5  H    0.062016  -0.006391  -0.002499   0.331859   0.535247  -0.038474
     6  H   -0.001256   0.000130  -0.000019   0.334404  -0.038474   0.496828
     7  O   -0.016315   0.000583   0.000868  -0.000129   0.000725   0.000212
     8  H    0.068420  -0.003090  -0.005889   0.000786  -0.000336   0.001185
     9  H    0.000008   0.000357  -0.000004  -0.000030  -0.000098  -0.000028
    10  O   -0.000060  -0.000024  -0.000002  -0.018895   0.001006   0.084212
    11  H   -0.000034   0.000107  -0.000010   0.002774   0.001825  -0.008410
    12  H    0.000007  -0.000007  -0.000001   0.001298   0.000365  -0.006909
    13  O   -0.027738   0.100178   0.000141  -0.000190   0.000236  -0.000047
    14  H    0.002593  -0.011401   0.000159   0.000789   0.001916  -0.000064
    15  H    0.001226  -0.007661  -0.000037  -0.000031  -0.000076   0.000002
    16  O   -0.000118   0.000302  -0.000008  -0.026320   0.003934   0.000462
    17  H   -0.000073   0.002050  -0.000072   0.095070  -0.012642  -0.005348
    18  H   -0.000005  -0.000055  -0.000001   0.000524   0.000260   0.000069
               7          8          9         10         11         12
     1  O   -0.016315   0.068420   0.000008  -0.000060  -0.000034   0.000007
     2  H    0.000583  -0.003090   0.000357  -0.000024   0.000107  -0.000007
     3  H    0.000868  -0.005889  -0.000004  -0.000002  -0.000010  -0.000001
     4  O   -0.000129   0.000786  -0.000030  -0.018895   0.002774   0.001298
     5  H    0.000725  -0.000336  -0.000098   0.001006   0.001825   0.000365
     6  H    0.000212   0.001185  -0.000028   0.084212  -0.008410  -0.006909
     7  O    7.552291   0.333881   0.340919  -0.019492   0.084160  -0.000438
     8  H    0.333881   0.494675  -0.031147   0.002549  -0.008637   0.000203
     9  H    0.340919  -0.031147   0.550985   0.001007  -0.006567   0.000010
    10  O   -0.019492   0.002549   0.001007   7.563028   0.326415   0.340658
    11  H    0.084160  -0.008637  -0.006567   0.326415   0.506868  -0.033053
    12  H   -0.000438   0.000203   0.000010   0.340658  -0.033053   0.555497
    13  O   -0.000002   0.000027   0.000003   0.000000   0.000001   0.000000
    14  H   -0.000001  -0.000049  -0.000004   0.000004  -0.000002  -0.000000
    15  H   -0.000000   0.000029  -0.000002  -0.000000  -0.000002   0.000000
    16  O    0.000000  -0.000002   0.000000   0.000000  -0.000001   0.000001
    17  H   -0.000011  -0.000044   0.000002  -0.000384   0.000052  -0.000032
    18  H    0.000000   0.000000   0.000000   0.000004  -0.000002  -0.000000
              13         14         15         16         17         18
     1  O   -0.027738   0.002593   0.001226  -0.000118  -0.000073  -0.000005
     2  H    0.100178  -0.011401  -0.007661   0.000302   0.002050  -0.000055
     3  H    0.000141   0.000159  -0.000037  -0.000008  -0.000072  -0.000001
     4  O   -0.000190   0.000789  -0.000031  -0.026320   0.095070   0.000524
     5  H    0.000236   0.001916  -0.000076   0.003934  -0.012642   0.000260
     6  H   -0.000047  -0.000064   0.000002   0.000462  -0.005348   0.000069
     7  O   -0.000002  -0.000001  -0.000000   0.000000  -0.000011   0.000000
     8  H    0.000027  -0.000049   0.000029  -0.000002  -0.000044   0.000000
     9  H    0.000003  -0.000004  -0.000002   0.000000   0.000002   0.000000
    10  O    0.000000   0.000004  -0.000000   0.000000  -0.000384   0.000004
    11  H    0.000001  -0.000002  -0.000002  -0.000001   0.000052  -0.000002
    12  H    0.000000  -0.000000   0.000000   0.000001  -0.000032  -0.000000
    13  O    7.583939   0.317056   0.340989  -0.026242   0.003351   0.001077
    14  H    0.317056   0.489286  -0.030337   0.097562  -0.011143  -0.007206
    15  H    0.340989  -0.030337   0.548522   0.000184   0.000183  -0.000028
    16  O   -0.026242   0.097562   0.000184   7.587240   0.318405   0.340406
    17  H    0.003351  -0.011143   0.000183   0.318405   0.487459  -0.030637
    18  H    0.001077  -0.007206  -0.000028   0.340406  -0.030637   0.551501
 Mulliken charges:
               1
     1  O   -0.278627
     2  H    0.152410
     3  H    0.155009
     4  O   -0.311836
     5  H    0.121127
     6  H    0.143050
     7  O   -0.277248
     8  H    0.147439
     9  H    0.144592
    10  O   -0.280027
    11  H    0.134515
    12  H    0.142401
    13  O   -0.292779
    14  H    0.150840
    15  H    0.147039
    16  O   -0.295807
    17  H    0.153811
    18  H    0.144093
 Sum of Mulliken charges =  -0.00000
 Mulliken charges with hydrogens summed into heavy atoms:
               1
     1  O    0.028792
     4  O   -0.047660
     7  O    0.014782
    10  O   -0.003111
    13  O    0.005100
    16  O    0.002097
 Electronic spatial extent (au):  <R**2>=           1437.8181
 Charge=              0.0000 electrons
 Dipole moment (field-independent basis, Debye):
    X=             -0.2568    Y=             -2.4533    Z=              0.0825  Tot=              2.4681
 Quadrupole moment (field-independent basis, Debye-Ang):
   XX=            -35.7552   YY=            -35.8339   ZZ=            -34.7389
   XY=             -0.3191   XZ=             -0.0580   YZ=              3.7193
 Traceless Quadrupole moment (field-independent basis, Debye-Ang):
   XX=             -0.3125   YY=             -0.3912   ZZ=              0.7038
   XY=             -0.3191   XZ=             -0.0580   YZ=              3.7193
 Octapole moment (field-independent basis, Debye-Ang**2):
  XXX=              0.8611  YYY=            -10.5626  ZZZ=             -2.7023  XYY=             -1.7708
  XXY=             24.8449  XXZ=              2.5135  XZZ=             -1.8896  YZZ=            -22.4302
  YYZ=              3.1635  XYZ=              1.9991
 Hexadecapole moment (field-independent basis, Debye-Ang**3):
 XXXX=           -858.5691 YYYY=           -457.2738 ZZZZ=           -114.1336 XXXY=              3.3591
 XXXZ=              4.8997 YYYX=            -10.0016 YYYZ=              4.8082 ZZZX=              1.1137
 ZZZY=             -1.3443 XXYY=           -206.2767 XXZZ=           -157.2743 YYZZ=            -86.0343
 XXYZ=             56.7074 YYXZ=             -4.0290 ZZXY=              2.7815
 N-N= 2.843944347789D+02 E-N=-1.653695675758D+03  KE= 4.559989174711D+02
 No NMR shielding tensors so no spin-rotation constants.
 Leave Link  601 at Fri Jun 18 03:59:16 2021, MaxMem=   134217728 cpu:               0.1 elap:               0.1
 (Enter /APL/ISV/x86_64/gaussian/16/C.01/g16/l701.exe)
 ... and contract with generalized density number  0.
 Compute integral first derivatives.
 Leave Link  701 at Fri Jun 18 03:59:16 2021, MaxMem=   134217728 cpu:               0.1 elap:               0.1
 (Enter /APL/ISV/x86_64/gaussian/16/C.01/g16/l702.exe)
 L702 exits ... SP integral derivatives will be done elsewhere.
 Leave Link  702 at Fri Jun 18 03:59:16 2021, MaxMem=   134217728 cpu:               0.0 elap:               0.0
 (Enter /APL/ISV/x86_64/gaussian/16/C.01/g16/l703.exe)
 Integral derivatives from FoFJK, PRISM(SPDF).
 Compute integral first derivatives, UseDBF=F ICtDFT=           0.
 Calling FoFJK, ICntrl=      2127 FMM=F ISym2X=0 I1Cent= 0 IOpClX= 0 NMat=1 NMatS=1 NMatT=0.
 FoFJK:  IHMeth= 1 ICntrl=    2127 DoSepK=F KAlg= 0 I1Cent=           0 FoldK=F
 IRaf=         0 NMat=       1 IRICut=       1 DoRegI=T DoRafI=F ISym2E= 0 IDoP0=0 IntGTp=1.
 FoFCou: FMM=F IPFlag=           0 FMFlag=      100000 FMFlg1=         800
         NFxFlg=           0 DoJE=F BraDBF=F KetDBF=F FulRan=T
         wScrn=  0.000000 ICntrl=      2127 IOpCl=  0 I1Cent=           0 NGrid=           0
         NMat0=    1 NMatS0=      1 NMatT0=    0 NMatD0=    1 NMtDS0=    0 NMtDT0=    0
 Symmetry not used in FoFCou.
 Leave Link  703 at Fri Jun 18 03:59:25 2021, MaxMem=   134217728 cpu:               8.7 elap:               8.7
 (Enter /APL/ISV/x86_64/gaussian/16/C.01/g16/l716.exe)
 Dipole        =-1.01037077D-01-9.65207299D-01 3.24487590D-02
 ***** Axes restored to original set *****
 -------------------------------------------------------------------
 Center     Atomic                   Forces (Hartrees/Bohr)
 Number     Number              X              Y              Z
 -------------------------------------------------------------------
      1        8          -0.002830806   -0.000595106    0.000262972
      2        1           0.002243361    0.000014868   -0.000578921
      3        1           0.000757351   -0.001011828   -0.001485497
      4        8           0.002647867   -0.001196631   -0.000391135
      5        1          -0.000561946    0.000160832   -0.000722199
      6        1          -0.001761098    0.001856393   -0.000654422
      7        8          -0.001519300   -0.001988362    0.000245717
      8        1           0.001469382    0.000383086   -0.000623394
      9        1           0.001391791   -0.000164103    0.001106299
     10        8           0.001793822   -0.001700878   -0.000029734
     11        1          -0.000276620    0.001356123    0.000823508
     12        1           0.000437430    0.001784952   -0.000065007
     13        8          -0.001709493    0.001914013    0.001379021
     14        1          -0.000429378   -0.002096952   -0.000869619
     15        1          -0.000283269   -0.001483572    0.000779078
     16        8           0.001423249    0.001982577   -0.001185800
     17        1          -0.001194463    0.000321928    0.001625575
     18        1          -0.001597881    0.000462660    0.000383559
 -------------------------------------------------------------------
 Cartesian Forces:  Max     0.002830806 RMS     0.001287396
 Leave Link  716 at Fri Jun 18 03:59:25 2021, MaxMem=   134217728 cpu:               0.0 elap:               0.0
 (Enter /APL/ISV/x86_64/gaussian/16/C.01/g16/l103.exe)

 GradGradGradGradGradGradGradGradGradGradGradGradGradGradGradGradGradGrad
 Berny optimization.
 FormGI is forming the generalized inverse of G from B-inverse, IUseBI=4.
 Internal  Forces:  Max     0.002686476 RMS     0.000938722
 Search for a local minimum.
 Step number   1 out of a maximum of   82
 All quantities printed in internal units (Hartrees-Bohrs-Radians)
 RMS Force = .93872D-03 SwitMx=.10000D-02 MixMth= 2
 Mixed Optimization -- En-DIIS/RFO-DIIS
 Second derivative matrix not updated -- first step.
 ITU=  0
     Eigenvalues ---    0.00230   0.00230   0.00230   0.00230   0.00230
     Eigenvalues ---    0.00230   0.00338   0.00427   0.00681   0.00810
     Eigenvalues ---    0.00915   0.00995   0.01337   0.04233   0.04347
     Eigenvalues ---    0.04658   0.04719   0.05228   0.05478   0.05762
     Eigenvalues ---    0.05780   0.06533   0.06798   0.07209   0.07629
     Eigenvalues ---    0.08276   0.08580   0.08871   0.09317   0.09780
     Eigenvalues ---    0.11197   0.11394   0.13300   0.14693   0.15199
     Eigenvalues ---    0.16000   0.46373   0.47928   0.48114   0.49214
     Eigenvalues ---    0.49852   0.50485   0.51796   0.53435   0.53493
     Eigenvalues ---    0.53529   0.53531   0.53569
 RFO step:  Lambda=-1.83069642D-03 EMin= 2.30000000D-03
 Linear search not attempted -- first point.
 Maximum step size (   0.300) exceeded in Quadratic search.
    -- Step size scaled by   0.832
 Iteration  1 RMS(Cart)=  0.13551986 RMS(Int)=  0.00545445
 Iteration  2 RMS(Cart)=  0.00812745 RMS(Int)=  0.00102377
 Iteration  3 RMS(Cart)=  0.00001474 RMS(Int)=  0.00102373
 Iteration  4 RMS(Cart)=  0.00000001 RMS(Int)=  0.00102373
 ITry= 1 IFail=0 DXMaxC= 5.71D-01 DCOld= 1.00D+10 DXMaxT= 3.00D-01 DXLimC= 3.00D+00 Rises=F
 Variable       Old X    -DE/DX   Delta X   Delta X   Delta X     New X
                                 (Linear)    (Quad)   (Total)
    R1        1.88641  -0.00011   0.00000  -0.00015  -0.00003   1.88637
    R2        1.83250  -0.00161   0.00000  -0.00251  -0.00251   1.82999
    R3        3.44985  -0.00191   0.00000  -0.02675  -0.02718   3.42267
    R4        3.22153  -0.00238   0.00000  -0.02633  -0.02623   3.19530
    R5        1.84795   0.00006   0.00000   0.00010   0.00009   1.84804
    R6        1.86227  -0.00002   0.00000   0.00007   0.00051   1.86278
    R7        3.25972  -0.00207   0.00000  -0.02389  -0.02404   3.23568
    R8        3.47574  -0.00175   0.00000  -0.02450  -0.02405   3.45168
    R9        1.85938  -0.00088   0.00000  -0.00152  -0.00197   1.85740
   R10        1.83126  -0.00095   0.00000  -0.00146  -0.00146   1.82980
   R11        3.42600  -0.00239   0.00000  -0.03295  -0.03280   3.39320
   R12        1.86391  -0.00101   0.00000  -0.00172  -0.00147   1.86244
   R13        1.83161  -0.00087   0.00000  -0.00134  -0.00134   1.83027
   R14        1.88231  -0.00058   0.00000  -0.00091  -0.00100   1.88131
   R15        1.83197  -0.00112   0.00000  -0.00173  -0.00173   1.83024
   R16        3.25617  -0.00269   0.00000  -0.03033  -0.03054   3.22563
   R17        1.88378  -0.00028   0.00000  -0.00047  -0.00059   1.88319
   R18        1.83163  -0.00101   0.00000  -0.00157  -0.00157   1.83006
    A1        1.83879  -0.00129   0.00000  -0.01202  -0.01254   1.82625
    A2        2.14140   0.00047   0.00000  -0.00321  -0.00335   2.13805
    A3        2.10332   0.00061   0.00000  -0.00050   0.00018   2.10350
    A4        1.80474  -0.00049   0.00000  -0.00753  -0.00734   1.79740
    A5        1.78371  -0.00001   0.00000  -0.00143  -0.00022   1.78349
    A6        1.96441  -0.00018   0.00000  -0.00088  -0.00065   1.96376
    A7        1.83076  -0.00094   0.00000  -0.01174  -0.01090   1.81986
    A8        1.79712  -0.00070   0.00000  -0.01193  -0.01245   1.78467
    A9        1.94778   0.00047   0.00000   0.00193   0.00220   1.94998
   A10        1.75454  -0.00071   0.00000  -0.01270  -0.01204   1.74250
   A11        1.91345   0.00036   0.00000  -0.00160  -0.00501   1.90845
   A12        1.82210  -0.00140   0.00000  -0.01696  -0.01682   1.80528
   A13        1.78906  -0.00032   0.00000  -0.00464  -0.00482   1.78424
   A14        2.01407   0.00012   0.00000  -0.00135   0.00218   2.01624
   A15        1.82095  -0.00055   0.00000  -0.01004  -0.01055   1.81041
   A16        1.76480  -0.00079   0.00000  -0.00734  -0.00913   1.75567
   A17        2.00193  -0.00002   0.00000  -0.00267  -0.00297   1.99896
   A18        1.82199  -0.00066   0.00000  -0.01097  -0.01111   1.81089
   A19        3.00672   0.00045   0.00000   0.09390   0.09275   3.09947
   A20        2.89943   0.00150   0.00000   0.09590   0.09728   2.99671
   A21        2.97189  -0.00036   0.00000  -0.06456  -0.06535   2.90654
   A22        2.96056  -0.00062   0.00000  -0.11151  -0.11129   2.84927
   A23        2.97538  -0.00083   0.00000  -0.17233  -0.17287   2.80251
   A24        2.95350  -0.00005   0.00000  -0.00186  -0.00347   2.95003
   A25        3.21556   0.00038   0.00000   0.02553   0.02670   3.24226
   A26        3.18992  -0.00060   0.00000  -0.05504  -0.05402   3.13590
   A27        3.15362  -0.00027   0.00000   0.00367   0.00522   3.15884
   A28        3.13039  -0.00117   0.00000  -0.08023  -0.08017   3.05021
   A29        3.03046   0.00122   0.00000   0.09147   0.09065   3.12110
   A30        3.03842  -0.00048   0.00000  -0.03031  -0.02825   3.01017
    D1       -0.52558   0.00041   0.00000   0.05861   0.05797  -0.46761
    D2        1.48470   0.00038   0.00000   0.04146   0.04125   1.52595
    D3        1.94717  -0.00014   0.00000   0.05581   0.05650   2.00367
    D4       -2.32573  -0.00017   0.00000   0.03865   0.03977  -2.28596
    D5        2.14191   0.00013   0.00000  -0.00775  -0.00664   2.13527
    D6       -2.18724  -0.00052   0.00000  -0.00016   0.00091  -2.18633
    D7       -1.55615  -0.00041   0.00000  -0.09005  -0.09006  -1.64621
    D8        0.39789  -0.00106   0.00000  -0.08245  -0.08252   0.31537
    D9        0.14924  -0.00077   0.00000  -0.02405  -0.02463   0.12462
   D10       -1.72970   0.00079   0.00000  -0.01437  -0.01505  -1.74474
   D11       -1.69552  -0.00094   0.00000  -0.04678  -0.04566  -1.74118
   D12        2.70873   0.00062   0.00000  -0.03710  -0.03608   2.67265
   D13       -0.07054   0.00082   0.00000   0.02885   0.02874  -0.04180
   D14        1.96953   0.00033   0.00000   0.01702   0.01684   1.98637
   D15        1.83270   0.00024   0.00000   0.02248   0.02299   1.85569
   D16       -2.41041  -0.00026   0.00000   0.01065   0.01109  -2.39933
   D17        0.05911   0.00061   0.00000   0.00449   0.00462   0.06372
   D18        2.00911   0.00026   0.00000  -0.03288  -0.03038   1.97873
   D19        1.99399  -0.00063   0.00000  -0.01944  -0.02098   1.97301
   D20       -2.33919  -0.00098   0.00000  -0.05681  -0.05598  -2.39517
   D21       -0.01667  -0.00077   0.00000  -0.02291  -0.02228  -0.03895
   D22       -1.94843   0.00081   0.00000   0.03832   0.03730  -1.91113
   D23       -2.08068  -0.00073   0.00000  -0.00890  -0.00631  -2.08699
   D24        2.27074   0.00086   0.00000   0.05233   0.05327   2.32401
         Item               Value     Threshold  Converged?
 Maximum Force            0.002686     0.000450     NO 
 RMS     Force            0.000939     0.000300     NO 
 Maximum Displacement     0.571095     0.001800     NO 
 RMS     Displacement     0.138156     0.001200     NO 
 Predicted change in Energy=-1.002002D-03
 Lowest energy point so far.  Saving SCF results.
 GradGradGradGradGradGradGradGradGradGradGradGradGradGradGradGradGradGrad

 Leave Link  103 at Fri Jun 18 03:59:25 2021, MaxMem=   134217728 cpu:               0.0 elap:               0.0
 (Enter /APL/ISV/x86_64/gaussian/16/C.01/g16/l202.exe)
                          Input orientation:                          
 ---------------------------------------------------------------------
 Center     Atomic      Atomic             Coordinates (Angstroms)
 Number     Number       Type             X           Y           Z
 ---------------------------------------------------------------------
      1          8           0        0.058136    1.296649    0.785688
      2          1           0        0.913293    1.273042    0.271290
      3          1           0        0.271775    1.786595    1.593210
      4          8           0        0.005097   -1.162594    0.980516
      5          1           0        0.029460   -0.187652    1.053081
      6          1           0       -0.838027   -1.327705    0.497234
      7          8           0       -2.425261    1.380395   -0.452982
      8          1           0       -1.553727    1.500683   -0.014758
      9          1           0       -2.315814    1.796786   -1.320291
     10          8           0       -2.413271   -1.370867   -0.426363
     11          1           0       -2.542718   -0.406592   -0.583681
     12          1           0       -3.134048   -1.598849    0.179086
     13          8           0        2.436530    1.174363   -0.456092
     14          1           0        2.559860    0.191419   -0.554699
     15          1           0        2.487066    1.504697   -1.365132
     16          8           0        2.267912   -1.486565   -0.441803
     17          1           0        1.385392   -1.488227    0.021068
     18          1           0        2.851126   -1.955722    0.172690
 ---------------------------------------------------------------------
                    Distance matrix (angstroms):
                    1          2          3          4          5
     1  O    0.000000
     2  H    0.998226   0.000000
     3  H    0.968391   1.556520   0.000000
     4  O    2.467518   2.694465   3.023943   0.000000
     5  H    1.508466   1.877760   2.061094   0.977942   0.000000
     6  H    2.788108   3.143574   3.483058   0.985739   1.536626
     7  O    2.776433   3.417900   3.409678   3.798467   3.279124
     8  H    1.811200   2.493959   2.449442   3.242460   2.548968
     9  H    3.212620   3.637935   3.896692   4.408886   3.882164
    10  O    3.833088   4.306159   4.610609   2.805565   3.091228
    11  H    3.397152   3.936516   4.179748   3.083766   3.056636
    12  H    4.352230   4.963590   5.006057   3.269073   3.572552
    13  O    2.685839   1.690880   3.043129   3.665662   3.150662
    14  H    3.045783   2.136200   3.520431   3.273691   3.021849
    15  H    3.251002   2.282171   3.706585   4.333207   3.840785
    16  O    3.759803   3.155776   4.340440   2.692263   2.988732
    17  H    3.178330   2.812489   3.799504   1.712247   2.143617
    18  H    4.330644   3.766940   4.761918   3.062926   3.444265
                    6          7          8          9         10
     6  H    0.000000
     7  O    3.279640   0.000000
     8  H    2.962118   0.982895   0.000000
     9  H    3.905086   0.968289   1.540412   0.000000
    10  O    1.826552   2.751417   3.025564   3.292815   0.000000
    11  H    2.218738   1.795606   2.222492   2.334299   0.985562
    12  H    2.333763   3.126945   3.484550   3.801049   0.968537
    13  O    4.229882   4.866156   4.027830   4.870219   5.477194
    14  H    3.867808   5.125958   4.350552   5.189945   5.214330
    15  H    4.748385   4.997843   4.260462   4.811963   5.758773
    16  O    3.248674   5.499587   4.869388   5.706372   4.682638
    17  H    2.279494   4.793203   4.192050   5.127326   3.826723
    18  H    3.756273   6.273867   5.602196   6.558016   5.330554
                   11         12         13         14         15
    11  H    0.000000
    12  H    1.533937   0.000000
    13  O    5.225764   6.255037   0.000000
    14  H    5.137582   6.013658   0.995546   0.000000
    15  H    5.437133   6.604054   0.968519   1.544927   0.000000
    16  O    4.932406   5.438684   2.666303   1.706929   3.138186
    17  H    4.118944   4.523554   2.902060   2.128871   3.477475
    18  H    5.662637   5.995807   3.219423   2.285639   3.804199
                   16         17         18
    16  O    0.000000
    17  H    0.996541   0.000000
    18  H    0.968426   1.545936   0.000000
 Stoichiometry    H12O6
 Framework group  C1[X(H12O6)]
 Deg. of freedom    48
 Full point group                 C1      NOp   1
 RotChk:  IX=0 Diff= 2.32D-02
 Largest Abelian subgroup         C1      NOp   1
 Largest concise Abelian subgroup C1      NOp   1
                         Standard orientation:                         
 ---------------------------------------------------------------------
 Center     Atomic      Atomic             Coordinates (Angstroms)
 Number     Number       Type             X           Y           Z
 ---------------------------------------------------------------------
      1          8           0       -0.016455   -1.272369    0.835855
      2          1           0       -0.870252   -1.301961    0.319512
      3          1           0       -0.213008   -1.740061    1.660726
      4          8           0       -0.061725    1.192579    0.938947
      5          1           0       -0.047583    0.220813    1.047770
      6          1           0        0.775693    1.373029    0.451249
      7          8           0        2.472193   -1.303218   -0.394698
      8          1           0        1.604749   -1.441716    0.046255
      9          1           0        2.382096   -1.755599   -1.246060
     10          8           0        2.350878    1.444473   -0.470694
     11          1           0        2.519007    0.480931   -0.591735
     12          1           0        3.060125    1.723318    0.127033
     13          8           0       -2.393911   -1.291101   -0.413577
     14          1           0       -2.555865   -0.318192   -0.548968
     15          1           0       -2.428431   -1.656761   -1.309752
     16          8           0       -2.331135    1.373119   -0.498226
     17          1           0       -1.450837    1.427114   -0.034270
     18          1           0       -2.934450    1.841219    0.097377
 ---------------------------------------------------------------------
 Rotational constants (GHZ):           2.1445648           1.0989928           0.8378466
 Leave Link  202 at Fri Jun 18 03:59:25 2021, MaxMem=   134217728 cpu:               0.0 elap:               0.0
 (Enter /APL/ISV/x86_64/gaussian/16/C.01/g16/l301.exe)
 Standard basis: CC-pVDZ (5D, 7F)
 Ernie: Thresh=  0.10000D-02 Tol=  0.10000D-05 Strict=F.
 Ernie:  12 primitive shells out of 192 were deleted.
 There are   150 symmetry adapted cartesian basis functions of A   symmetry.
 There are   144 symmetry adapted basis functions of A   symmetry.
   144 basis functions,   282 primitive gaussians,   150 cartesian basis functions
    30 alpha electrons       30 beta electrons
       nuclear repulsion energy       291.4562374212 Hartrees.
 IExCor=  402 DFT=T Ex+Corr=B3LYP ExCW=0 ScaHFX=  0.200000
 ScaDFX=  0.800000  0.720000  1.000000  0.810000 ScalE2=  1.000000  1.000000
 IRadAn=      5 IRanWt=     -1 IRanGd=            0 ICorTp=0 IEmpDi=  4
 NAtoms=   18 NActive=   18 NUniq=   18 SFac= 1.00D+00 NAtFMM=   60 NAOKFM=F Big=F
 Integral buffers will be    131072 words long.
 Raffenetti 2 integral format.
 Two-electron integral symmetry is turned on.
 Leave Link  301 at Fri Jun 18 03:59:25 2021, MaxMem=   134217728 cpu:               0.1 elap:               0.1
 (Enter /APL/ISV/x86_64/gaussian/16/C.01/g16/l302.exe)
 NPDir=0 NMtPBC=     1 NCelOv=     1 NCel=       1 NClECP=     1 NCelD=      1
         NCelK=      1 NCelE2=     1 NClLst=     1 CellRange=     0.0.
 One-electron integrals computed using PRISM.
 One-electron integral symmetry used in STVInt
 NBasis=   144 RedAO= T EigKep=  2.45D-02  NBF=   144
 NBsUse=   144 1.00D-06 EigRej= -1.00D+00 NBFU=   144
 Precomputing XC quadrature grid using
 IXCGrd= 4 IRadAn=           5 IRanWt=          -1 IRanGd=           0 AccXCQ= 0.00D+00.
 Generated NRdTot=       0 NPtTot=           0 NUsed=           0 NTot=          32
 NSgBfM=   150   150   150   150   150 MxSgAt=    18 MxSgA2=    18.
 Leave Link  302 at Fri Jun 18 03:59:26 2021, MaxMem=   134217728 cpu:               0.4 elap:               0.4
 (Enter /APL/ISV/x86_64/gaussian/16/C.01/g16/l303.exe)
 DipDrv:  MaxL=1.
 Leave Link  303 at Fri Jun 18 03:59:26 2021, MaxMem=   134217728 cpu:               0.1 elap:               0.0
 (Enter /APL/ISV/x86_64/gaussian/16/C.01/g16/l401.exe)
 Initial guess from the checkpoint file:  "w6-b3lyp-dz.chk"
 B after Tr=    -0.000000   -0.000000    0.000000
         Rot=    0.999979    0.004165    0.000166   -0.004865 Ang=   0.73 deg.
 Guess basis will be translated and rotated to current coordinates.
 JPrj=2 DoOrth=T DoCkMO=T.
 Generating alternative initial guess.
 ExpMin= 1.22D-01 ExpMax= 1.17D+04 ExpMxC= 4.01D+02 IAcc=3 IRadAn=         5 AccDes= 0.00D+00
 Harris functional with IExCor=  402 and IRadAn=       5 diagonalized for initial guess.
 HarFok:  IExCor=  402 AccDes= 0.00D+00 IRadAn=         5 IDoV= 1 UseB2=F ITyADJ=14
 ICtDFT=  3500011 ScaDFX=  1.000000  1.000000  1.000000  1.000000
 FoFCou: FMM=F IPFlag=           0 FMFlag=      100000 FMFlg1=           0
         NFxFlg=           0 DoJE=T BraDBF=F KetDBF=T FulRan=T
         wScrn=  0.000000 ICntrl=       500 IOpCl=  0 I1Cent=   200000004 NGrid=           0
         NMat0=    1 NMatS0=      1 NMatT0=    0 NMatD0=    1 NMtDS0=    0 NMtDT0=    0
 Petite list used in FoFCou.
 Harris En= -458.768397331735    
 Leave Link  401 at Fri Jun 18 03:59:28 2021, MaxMem=   134217728 cpu:               2.3 elap:               2.3
 (Enter /APL/ISV/x86_64/gaussian/16/C.01/g16/l502.exe)
 Keep R1 ints in memory in canonical form, NReq=56224937.
 FoFCou: FMM=F IPFlag=           0 FMFlag=           0 FMFlg1=           0
         NFxFlg=           0 DoJE=F BraDBF=F KetDBF=F FulRan=T
         wScrn=  0.000000 ICntrl=       600 IOpCl=  0 I1Cent=           0 NGrid=           0
         NMat0=    1 NMatS0=  10440 NMatT0=    0 NMatD0=    1 NMtDS0=    0 NMtDT0=    0
 Symmetry not used in FoFCou.
 Two-electron integral symmetry not used.
 Closed shell SCF:
 Using DIIS extrapolation, IDIIS=  1040.
 NGot=   134217728 LenX=    79667590 LenY=    79644649
 Requested convergence on RMS density matrix=1.00D-08 within 128 cycles.
 Requested convergence on MAX density matrix=1.00D-06.
 Requested convergence on             energy=1.00D-06.
 No special actions if energy rises.
 Integral accuracy reduced to 1.0D-05 until final iterations.

 Cycle   1  Pass 0  IDiag  1:
 E= -458.616921627812    
 DIIS: error= 6.59D-03 at cycle   1 NSaved=   1.
 NSaved= 1 IEnMin= 1 EnMin= -458.616921627812     IErMin= 1 ErrMin= 6.59D-03
 ErrMax= 6.59D-03  0.00D+00 EMaxC= 1.00D-01 BMatC= 1.05D-02 BMatP= 1.05D-02
 IDIUse=3 WtCom= 9.34D-01 WtEn= 6.59D-02
 Coeff-Com:  0.100D+01
 Coeff-En:   0.100D+01
 Coeff:      0.100D+01
 Gap=     0.444 Goal=   None    Shift=    0.000
 GapD=    0.444 DampG=2.000 DampE=1.000 DampFc=2.0000 IDamp=-1.
 RMSDP=1.21D-03 MaxDP=3.38D-02              OVMax= 2.61D-02

 Cycle   2  Pass 0  IDiag  1:
 E= -458.631881505649     Delta-E=       -0.014959877837 Rises=F Damp=F
 DIIS: error= 1.50D-03 at cycle   2 NSaved=   2.
 NSaved= 2 IEnMin= 2 EnMin= -458.631881505649     IErMin= 2 ErrMin= 1.50D-03
 ErrMax= 1.50D-03  0.00D+00 EMaxC= 1.00D-01 BMatC= 3.59D-04 BMatP= 1.05D-02
 IDIUse=3 WtCom= 9.85D-01 WtEn= 1.50D-02
 Coeff-Com:  0.388D-02 0.996D+00
 Coeff-En:   0.000D+00 0.100D+01
 Coeff:      0.382D-02 0.996D+00
 Gap=     0.292 Goal=   None    Shift=    0.000
 RMSDP=1.81D-04 MaxDP=7.98D-03 DE=-1.50D-02 OVMax= 7.08D-03

 Cycle   3  Pass 0  IDiag  1:
 E= -458.631814432644     Delta-E=        0.000067073005 Rises=F Damp=F
 DIIS: error= 1.67D-03 at cycle   3 NSaved=   3.
 NSaved= 3 IEnMin= 2 EnMin= -458.631881505649     IErMin= 2 ErrMin= 1.50D-03
 ErrMax= 1.67D-03  0.00D+00 EMaxC= 1.00D-01 BMatC= 5.28D-04 BMatP= 3.59D-04
 IDIUse=3 WtCom= 1.97D-01 WtEn= 8.03D-01
 Coeff-Com: -0.296D-01 0.568D+00 0.461D+00
 Coeff-En:   0.000D+00 0.555D+00 0.445D+00
 Coeff:     -0.582D-02 0.557D+00 0.449D+00
 Gap=     0.285 Goal=   None    Shift=    0.000
 RMSDP=1.15D-04 MaxDP=4.80D-03 DE= 6.71D-05 OVMax= 5.16D-03

 Cycle   4  Pass 0  IDiag  1:
 E= -458.632176599187     Delta-E=       -0.000362166543 Rises=F Damp=F
 DIIS: error= 2.44D-04 at cycle   4 NSaved=   4.
 NSaved= 4 IEnMin= 4 EnMin= -458.632176599187     IErMin= 4 ErrMin= 2.44D-04
 ErrMax= 2.44D-04  0.00D+00 EMaxC= 1.00D-01 BMatC= 1.33D-05 BMatP= 3.59D-04
 IDIUse=3 WtCom= 9.98D-01 WtEn= 2.44D-03
 Coeff-Com: -0.102D-01 0.134D+00 0.190D+00 0.686D+00
 Coeff-En:   0.000D+00 0.000D+00 0.000D+00 0.100D+01
 Coeff:     -0.102D-01 0.134D+00 0.190D+00 0.687D+00
 Gap=     0.286 Goal=   None    Shift=    0.000
 RMSDP=1.99D-05 MaxDP=5.50D-04 DE=-3.62D-04 OVMax= 7.27D-04

 Cycle   5  Pass 0  IDiag  1:
 E= -458.632185664193     Delta-E=       -0.000009065006 Rises=F Damp=F
 DIIS: error= 5.99D-05 at cycle   5 NSaved=   5.
 NSaved= 5 IEnMin= 5 EnMin= -458.632185664193     IErMin= 5 ErrMin= 5.99D-05
 ErrMax= 5.99D-05  0.00D+00 EMaxC= 1.00D-01 BMatC= 1.29D-06 BMatP= 1.33D-05
 IDIUse=1 WtCom= 1.00D+00 WtEn= 0.00D+00
 Coeff-Com: -0.353D-02 0.343D-01 0.712D-01 0.346D+00 0.552D+00
 Coeff:     -0.353D-02 0.343D-01 0.712D-01 0.346D+00 0.552D+00
 Gap=     0.287 Goal=   None    Shift=    0.000
 RMSDP=5.98D-06 MaxDP=1.88D-04 DE=-9.07D-06 OVMax= 1.86D-04

 Initial convergence to 1.0D-05 achieved.  Increase integral accuracy.
 Cycle   6  Pass 1  IDiag  1:
 E= -458.632184650913     Delta-E=        0.000001013281 Rises=F Damp=F
 DIIS: error= 1.43D-05 at cycle   1 NSaved=   1.
 NSaved= 1 IEnMin= 1 EnMin= -458.632184650913     IErMin= 1 ErrMin= 1.43D-05
 ErrMax= 1.43D-05  0.00D+00 EMaxC= 1.00D-01 BMatC= 8.82D-08 BMatP= 8.82D-08
 IDIUse=1 WtCom= 1.00D+00 WtEn= 0.00D+00
 Coeff-Com:  0.100D+01
 Coeff:      0.100D+01
 Gap=     0.286 Goal=   None    Shift=    0.000
 RMSDP=5.98D-06 MaxDP=1.88D-04 DE= 1.01D-06 OVMax= 9.77D-05

 Cycle   7  Pass 1  IDiag  1:
 E= -458.632184597241     Delta-E=        0.000000053672 Rises=F Damp=F
 DIIS: error= 2.00D-05 at cycle   2 NSaved=   2.
 NSaved= 2 IEnMin= 1 EnMin= -458.632184650913     IErMin= 1 ErrMin= 1.43D-05
 ErrMax= 2.00D-05  0.00D+00 EMaxC= 1.00D-01 BMatC= 1.67D-07 BMatP= 8.82D-08
 IDIUse=1 WtCom= 1.00D+00 WtEn= 0.00D+00
 Coeff-Com:  0.581D+00 0.419D+00
 Coeff:      0.581D+00 0.419D+00
 Gap=     0.286 Goal=   None    Shift=    0.000
 RMSDP=1.86D-06 MaxDP=5.58D-05 DE= 5.37D-08 OVMax= 5.89D-05

 Cycle   8  Pass 1  IDiag  1:
 E= -458.632184714305     Delta-E=       -0.000000117064 Rises=F Damp=F
 DIIS: error= 1.77D-06 at cycle   3 NSaved=   3.
 NSaved= 3 IEnMin= 3 EnMin= -458.632184714305     IErMin= 3 ErrMin= 1.77D-06
 ErrMax= 1.77D-06  0.00D+00 EMaxC= 1.00D-01 BMatC= 1.54D-09 BMatP= 8.82D-08
 IDIUse=1 WtCom= 1.00D+00 WtEn= 0.00D+00
 Coeff-Com:  0.202D+00 0.171D+00 0.626D+00
 Coeff:      0.202D+00 0.171D+00 0.626D+00
 Gap=     0.286 Goal=   None    Shift=    0.000
 RMSDP=2.32D-07 MaxDP=6.42D-06 DE=-1.17D-07 OVMax= 7.36D-06

 Cycle   9  Pass 1  IDiag  1:
 E= -458.632184715261     Delta-E=       -0.000000000955 Rises=F Damp=F
 DIIS: error= 8.64D-07 at cycle   4 NSaved=   4.
 NSaved= 4 IEnMin= 4 EnMin= -458.632184715261     IErMin= 4 ErrMin= 8.64D-07
 ErrMax= 8.64D-07  0.00D+00 EMaxC= 1.00D-01 BMatC= 2.48D-10 BMatP= 1.54D-09
 IDIUse=1 WtCom= 1.00D+00 WtEn= 0.00D+00
 Coeff-Com:  0.699D-01 0.643D-01 0.343D+00 0.523D+00
 Coeff:      0.699D-01 0.643D-01 0.343D+00 0.523D+00
 Gap=     0.286 Goal=   None    Shift=    0.000
 RMSDP=8.00D-08 MaxDP=3.10D-06 DE=-9.55D-10 OVMax= 3.33D-06

 Cycle  10  Pass 1  IDiag  1:
 E= -458.632184715435     Delta-E=       -0.000000000175 Rises=F Damp=F
 DIIS: error= 2.10D-07 at cycle   5 NSaved=   5.
 NSaved= 5 IEnMin= 5 EnMin= -458.632184715435     IErMin= 5 ErrMin= 2.10D-07
 ErrMax= 2.10D-07  0.00D+00 EMaxC= 1.00D-01 BMatC= 7.01D-12 BMatP= 2.48D-10
 IDIUse=1 WtCom= 1.00D+00 WtEn= 0.00D+00
 Coeff-Com: -0.114D-01-0.797D-02 0.537D-02 0.143D+00 0.871D+00
 Coeff:     -0.114D-01-0.797D-02 0.537D-02 0.143D+00 0.871D+00
 Gap=     0.286 Goal=   None    Shift=    0.000
 RMSDP=1.72D-08 MaxDP=6.95D-07 DE=-1.75D-10 OVMax= 6.92D-07

 Cycle  11  Pass 1  IDiag  1:
 E= -458.632184715442     Delta-E=       -0.000000000006 Rises=F Damp=F
 DIIS: error= 4.13D-08 at cycle   6 NSaved=   6.
 NSaved= 6 IEnMin= 6 EnMin= -458.632184715442     IErMin= 6 ErrMin= 4.13D-08
 ErrMax= 4.13D-08  0.00D+00 EMaxC= 1.00D-01 BMatC= 7.57D-13 BMatP= 7.01D-12
 IDIUse=1 WtCom= 1.00D+00 WtEn= 0.00D+00
 Coeff-Com: -0.763D-02-0.575D-02-0.590D-02 0.607D-01 0.445D+00 0.514D+00
 Coeff:     -0.763D-02-0.575D-02-0.590D-02 0.607D-01 0.445D+00 0.514D+00
 Gap=     0.286 Goal=   None    Shift=    0.000
 RMSDP=4.59D-09 MaxDP=1.22D-07 DE=-6.48D-12 OVMax= 1.30D-07

 SCF Done:  E(RB3LYP) =  -458.632184715     A.U. after   11 cycles
            NFock= 11  Conv=0.46D-08     -V/T= 2.0054
 KE= 4.561825003675D+02 PE=-1.667940590169D+03 EE= 4.616696676648D+02
 Leave Link  502 at Fri Jun 18 03:59:52 2021, MaxMem=   134217728 cpu:              23.6 elap:              23.7
 (Enter /APL/ISV/x86_64/gaussian/16/C.01/g16/l701.exe)
 ... and contract with generalized density number  0.
 Compute integral first derivatives.
 Leave Link  701 at Fri Jun 18 03:59:52 2021, MaxMem=   134217728 cpu:               0.1 elap:               0.1
 (Enter /APL/ISV/x86_64/gaussian/16/C.01/g16/l702.exe)
 L702 exits ... SP integral derivatives will be done elsewhere.
 Leave Link  702 at Fri Jun 18 03:59:52 2021, MaxMem=   134217728 cpu:               0.0 elap:               0.0
 (Enter /APL/ISV/x86_64/gaussian/16/C.01/g16/l703.exe)
 Integral derivatives from FoFJK, PRISM(SPDF).
 Compute integral first derivatives, UseDBF=F ICtDFT=           0.
 Calling FoFJK, ICntrl=      2127 FMM=F ISym2X=0 I1Cent= 0 IOpClX= 0 NMat=1 NMatS=1 NMatT=0.
 FoFJK:  IHMeth= 1 ICntrl=    2127 DoSepK=F KAlg= 0 I1Cent=           0 FoldK=F
 IRaf=         0 NMat=       1 IRICut=       1 DoRegI=T DoRafI=F ISym2E= 0 IDoP0=0 IntGTp=1.
 FoFCou: FMM=F IPFlag=           0 FMFlag=      100000 FMFlg1=         800
         NFxFlg=           0 DoJE=F BraDBF=F KetDBF=F FulRan=T
         wScrn=  0.000000 ICntrl=      2127 IOpCl=  0 I1Cent=           0 NGrid=           0
         NMat0=    1 NMatS0=      1 NMatT0=    0 NMatD0=    1 NMtDS0=    0 NMtDT0=    0
 Symmetry not used in FoFCou.
 Leave Link  703 at Fri Jun 18 04:00:00 2021, MaxMem=   134217728 cpu:               8.2 elap:               8.2
 (Enter /APL/ISV/x86_64/gaussian/16/C.01/g16/l716.exe)
 Dipole        =-1.26620401D-01-1.25073404D+00 2.85459020D-03
 ***** Axes restored to original set *****
 -------------------------------------------------------------------
 Center     Atomic                   Forces (Hartrees/Bohr)
 Number     Number              X              Y              Z
 -------------------------------------------------------------------
      1        8          -0.000289761    0.024097537   -0.000842356
      2        1           0.006049099    0.003709312   -0.003884915
      3        1           0.000504765    0.002239020    0.000282034
      4        8           0.001074885   -0.023167258   -0.001829340
      5        1          -0.002897746   -0.005129726    0.003168847
      6        1           0.001417392   -0.001912409    0.000091102
      7        8          -0.001094949    0.000600369   -0.000688978
      8        1          -0.000386554   -0.001165583   -0.000304024
      9        1           0.000449523    0.000448735   -0.000147933
     10        8          -0.000539921   -0.000973701   -0.001658642
     11        1           0.001342714    0.000947341    0.002137759
     12        1           0.000033016    0.000345955    0.000593834
     13        8          -0.001621845    0.002437733   -0.000926057
     14        1          -0.002274839   -0.004884062    0.004087985
     15        1          -0.000535604    0.000916138   -0.000203770
     16        8           0.004457646    0.000669447   -0.003983222
     17        1          -0.005186086    0.000719584    0.003548821
     18        1          -0.000501734    0.000101568    0.000558854
 -------------------------------------------------------------------
 Cartesian Forces:  Max     0.024097537 RMS     0.005078688
 Leave Link  716 at Fri Jun 18 04:00:00 2021, MaxMem=   134217728 cpu:               0.0 elap:               0.0
 (Enter /APL/ISV/x86_64/gaussian/16/C.01/g16/l103.exe)

 GradGradGradGradGradGradGradGradGradGradGradGradGradGradGradGradGradGrad
 Berny optimization.
 Using GEDIIS/GDIIS optimizer.
 FormGI is forming the generalized inverse of G from B-inverse, IUseBI=4.
 Internal  Forces:  Max     0.036643116 RMS     0.011781099
 Search for a local minimum.
 Step number   2 out of a maximum of   82
 All quantities printed in internal units (Hartrees-Bohrs-Radians)
 RMS Force = .11781D-01 SwitMx=.10000D-02 MixMth= 1
 Mixed Optimization -- RFO/linear search
 Update second derivatives using D2CorX and points    2    1
 DE=  8.88D-03 DEPred=-1.00D-03 R=-8.86D+00
 Trust test=-8.86D+00 RLast= 3.60D-01 DXMaxT set to 1.50D-01
 ITU= -1  0
 Use linear search instead of GDIIS.
     Eigenvalues ---    0.00223   0.00230   0.00230   0.00230   0.00230
     Eigenvalues ---    0.00241   0.00401   0.00608   0.00715   0.00788
     Eigenvalues ---    0.00944   0.01359   0.03604   0.04080   0.04314
     Eigenvalues ---    0.04694   0.05120   0.05362   0.05584   0.05785
     Eigenvalues ---    0.06281   0.06477   0.06744   0.07441   0.07791
     Eigenvalues ---    0.08198   0.08578   0.08921   0.09312   0.09730
     Eigenvalues ---    0.11245   0.13038   0.14379   0.15072   0.15714
     Eigenvalues ---    0.34558   0.46130   0.48093   0.48576   0.49168
     Eigenvalues ---    0.50442   0.51657   0.53077   0.53466   0.53510
     Eigenvalues ---    0.53530   0.53561   0.56434
 RFO step:  Lambda=-2.67010125D-03 EMin= 2.23423535D-03
 Quartic linear search produced a step of -0.85870.
 Maximum step size (   0.150) exceeded in Quadratic search.
    -- Step size scaled by   0.458
 Iteration  1 RMS(Cart)=  0.12010523 RMS(Int)=  0.00424815
 Iteration  2 RMS(Cart)=  0.00635738 RMS(Int)=  0.00071237
 Iteration  3 RMS(Cart)=  0.00001976 RMS(Int)=  0.00071233
 Iteration  4 RMS(Cart)=  0.00000002 RMS(Int)=  0.00071233
 ITry= 1 IFail=0 DXMaxC= 4.46D-01 DCOld= 1.00D+10 DXMaxT= 1.50D-01 DXLimC= 3.00D+00 Rises=F
 Variable       Old X    -DE/DX   Delta X   Delta X   Delta X     New X
                                 (Linear)    (Quad)   (Total)
    R1        1.88637   0.00265   0.00003   0.00025  -0.00013   1.88624
    R2        1.82999   0.00148   0.00215  -0.00221  -0.00006   1.82994
    R3        3.42267   0.00080   0.02334  -0.02762  -0.00430   3.41838
    R4        3.19530  -0.00398   0.02252  -0.03025  -0.00812   3.18718
    R5        1.84804  -0.00512  -0.00008  -0.00052  -0.00059   1.84745
    R6        1.86278  -0.00503  -0.00043  -0.00040  -0.00089   1.86188
    R7        3.23568  -0.00425   0.02064  -0.02842  -0.00734   3.22834
    R8        3.45168  -0.00230   0.02065  -0.02805  -0.00742   3.44427
    R9        1.85740   0.00294   0.00170  -0.00125   0.00047   1.85787
   R10        1.82980   0.00038   0.00126  -0.00135  -0.00009   1.82971
   R11        3.39320   0.01432   0.02817  -0.01949   0.00865   3.40185
   R12        1.86244   0.01440   0.00126   0.00036   0.00160   1.86404
   R13        1.83027   0.00027   0.00115  -0.00124  -0.00009   1.83018
   R14        1.88131   0.01822   0.00086   0.00133   0.00219   1.88350
   R15        1.83024   0.00048   0.00149  -0.00159  -0.00010   1.83013
   R16        3.22563   0.01364   0.02622  -0.02073   0.00554   3.23117
   R17        1.88319   0.00462   0.00050   0.00009   0.00099   1.88418
   R18        1.83006   0.00000   0.00135  -0.00149  -0.00014   1.82992
    A1        1.82625   0.00224   0.01077  -0.00618   0.00476   1.83101
    A2        2.13805   0.00462   0.00287   0.00155   0.00501   2.14306
    A3        2.10350  -0.00138  -0.00015   0.00365   0.00310   2.10660
    A4        1.79740  -0.01053   0.00630  -0.01539  -0.00918   1.78822
    A5        1.78349  -0.00347   0.00019  -0.00660  -0.00699   1.77649
    A6        1.96376   0.00980   0.00056   0.00185   0.00181   1.96557
    A7        1.81986  -0.00578   0.00936  -0.01608  -0.00645   1.81342
    A8        1.78467   0.01742   0.01069  -0.00111   0.00988   1.79455
    A9        1.94998  -0.01030  -0.00189  -0.00533  -0.00730   1.94267
   A10        1.74250   0.01702   0.01034   0.00134   0.01176   1.75426
   A11        1.90845  -0.00614   0.00430  -0.00663  -0.00170   1.90674
   A12        1.80528   0.00701   0.01444  -0.01079   0.00316   1.80845
   A13        1.78424   0.01272   0.00414   0.00118   0.00551   1.78976
   A14        2.01624  -0.00478  -0.00187  -0.00303  -0.00485   2.01140
   A15        1.81041  -0.00775   0.00906  -0.01326  -0.00431   1.80610
   A16        1.75567   0.01981   0.00784   0.00048   0.01026   1.76593
   A17        1.99896   0.00525   0.00255   0.00068   0.00355   2.00251
   A18        1.81089  -0.00978   0.00954  -0.01608  -0.00759   1.80330
   A19        3.09947  -0.01793  -0.07964   0.03577  -0.04341   3.05606
   A20        2.99671  -0.02502  -0.08354   0.05839  -0.02590   2.97080
   A21        2.90654   0.00097   0.05612  -0.04117   0.01483   2.92137
   A22        2.84927   0.02661   0.09557   0.01631   0.11208   2.96136
   A23        2.80251   0.03043   0.14844  -0.01057   0.13869   2.94120
   A24        2.95003   0.00106   0.00298   0.01347   0.01911   2.96914
   A25        3.24226  -0.00104  -0.02292   0.00903  -0.01396   3.22830
   A26        3.13590   0.00579   0.04639  -0.03507   0.00986   3.14576
   A27        3.15884   0.00311  -0.00449   0.03254   0.02584   3.18469
   A28        3.05021   0.03664   0.06884   0.02707   0.09454   3.14475
   A29        3.12110  -0.03137  -0.07784  -0.05807  -0.13570   2.98541
   A30        3.01017  -0.00107   0.02426  -0.05889  -0.03486   2.97532
    D1       -0.46761  -0.00853  -0.04978   0.03073  -0.01874  -0.48635
    D2        1.52595  -0.01499  -0.03542   0.00829  -0.02678   1.49917
    D3        2.00367  -0.00043  -0.04851   0.04048  -0.00851   1.99516
    D4       -2.28596  -0.00689  -0.03415   0.01804  -0.01655  -2.30250
    D5        2.13527   0.00081   0.00570  -0.03157  -0.02661   2.10866
    D6       -2.18633  -0.00588  -0.00078  -0.04077  -0.04194  -2.22827
    D7       -1.64621   0.01992   0.07733  -0.05504   0.02245  -1.62377
    D8        0.31537   0.01323   0.07086  -0.06424   0.00712   0.32249
    D9        0.12462   0.00725   0.02115   0.02717   0.04840   0.17301
   D10       -1.74474  -0.00297   0.01292   0.03009   0.04363  -1.70111
   D11       -1.74118   0.02075   0.03921   0.03130   0.06878  -1.67239
   D12        2.67265   0.01053   0.03098   0.03423   0.06402   2.73667
   D13       -0.04180  -0.00745  -0.02468  -0.01869  -0.04315  -0.08495
[...]
 12,-0.8228594,-0.0535642,-0.1701353,-0.0930681,-0.4774902,0.6827802,-0
 .0142127,0.2498091,-0.0268761,0.2725279,0.0247,0.2749774,0.0422986,0.3
 670568,0.2645628,-0.0727477,0.0789814,-0.0458996,0.2657928,0.0557211,0
 .0288745,0.0389977,0.1879191,-0.7137631,-0.0541363,-0.2276649,-0.06358
 89,-0.8121733,0.0726869,-0.2860115,-0.000907,-0.5296937,0.2541669,0.06
 81619,0.0336636,0.0542185,0.8179615,-0.0820728,0.0514415,-0.0317138,0.
 2522837,0.2217631,0.00672,0.0844394,0.0576736,0.2794971,-0.0140028,0.0
 940532,0.0237177,0.2181609,-0.8706376,0.0272331,0.1771171,0.0337061,-0
 .942917,0.0811092,0.1853272,0.0141028,-0.4388925,0.2909609,0.0165005,-
 0.0035491,-0.028013,1.0192344,-0.1171092,-0.002946,-0.0914527,0.207334
 ,0.2967458,0.0292281,-0.0145305,0.0321322,0.2774886,-0.0473483,-0.0126
 4,0.011635,0.1443621,-0.8799433,-0.0210341,0.1811251,-0.0121387,-0.878
 924,-0.0493247,0.2650678,-0.1015218,-0.483817,0.921789,-0.0168315,-0.2
 734646,-0.0373032,0.2660599,0.0462252,-0.3557621,0.0500354,0.3526708,0
 .2611745,-0.0105838,-0.0188132,0.0180856,0.2597833,0.0607579,-0.077615
 2,0.0779571,0.1961814\Polar=45.0453008,-0.1252758,42.1842531,-0.625533
 3,-2.1663917,35.2766724\Quadrupole=-0.8024735,-0.8237911,1.6262645,-0.
 3820536,0.0332744,-2.629609\PG=C01 [X(H12O6)]\NImag=0\\0.37106591,0.07
 485594,0.22562165,-0.07875567,0.24980227,0.45868029,-0.26246334,0.0048
 2564,0.15596398,0.25269358,-0.02355598,-0.03251393,-0.00582993,0.00183
 688,0.04912130,0.11591766,-0.02448965,-0.12890458,-0.13389786,0.018333
 19,0.15075695,-0.06318431,-0.08233477,-0.09067649,0.01112464,0.0220166
 2,0.02701942,0.05486940,-0.05838953,-0.18421426,-0.23734866,-0.0029026
 6,-0.00210349,-0.00011345,0.06309459,0.18785740,-0.05448810,-0.2212226
 6,-0.30864012,-0.01145124,-0.01695518,-0.01867211,0.06573158,0.2387007
 1,0.32699020,0.00614235,-0.00273966,0.00017315,-0.00246193,0.00227116,
 0.00097423,-0.00008406,0.00040592,0.00003282,0.37791058,-0.00182662,-0
 .01294901,0.00017019,0.00418779,0.00007969,-0.00283272,-0.00001370,-0.
 00132276,0.00232254,0.02084939,0.50843936,-0.00070716,-0.00254067,0.00
 621856,0.00155883,-0.00125913,-0.00217893,0.00021013,0.00162196,-0.000
 50307,0.18859427,0.11756165,0.17726794,-0.00635204,0.00325594,-0.00053
 057,0.00036839,-0.00398526,0.00122793,-0.00028720,-0.00066554,-0.00011
 181,-0.04472680,0.02916065,-0.00734592,0.05078117,0.00088607,0.0006241
 0,-0.00327001,-0.00711626,0.00045055,0.00586264,0.00018724,-0.00054340
 ,-0.00255678,-0.00925242,-0.44020914,-0.09849027,0.00443727,0.44969039
 ,0.00098761,0.00116026,-0.00874116,0.00017119,0.00341797,0.00016063,-0
 .00047516,-0.00377976,0.00163749,-0.01692553,-0.07303933,-0.03722208,0
 .01610443,0.10002162,0.05150349,-0.00177545,0.00397791,-0.00113827,-0.
 00019667,-0.00109763,0.00026017,0.00019604,-0.00010435,-0.00020218,-0.
 29523666,-0.04598423,-0.17659552,0.00008126,-0.00064474,-0.00006593,0.
 30106436,0.00093521,-0.00086254,0.00101967,-0.00049244,0.00019140,0.00
 000210,0.00012782,0.00024695,-0.00014252,-0.00693473,-0.05398119,-0.01
 647702,-0.03982189,-0.00833995,-0.02608642,0.04554830,0.07321269,-0.00
 038885,0.00177959,-0.00115737,-0.00016743,-0.00041551,0.00059779,-0.00
 004272,-0.00012451,-0.00004449,-0.16941605,-0.03992845,-0.12878548,-0.
 00994295,-0.00205398,-0.00542865,0.17133242,0.03849070,0.13665419,-0.0
 1323712,-0.00136392,-0.01025091,0.00354307,-0.00049331,-0.00363873,-0.
 00348560,0.00203111,0.00041275,0.00131002,0.00210265,0.00011214,-0.000
 46024,-0.00258421,0.00060037,-0.00201014,-0.00084080,-0.00051011,0.394
 34948,-0.00336892,0.00570119,-0.00101099,0.00093615,-0.00057857,-0.001
 02676,0.00106481,-0.00014780,0.00060376,0.00341733,0.00090591,0.001726
 08,-0.00077086,-0.00168816,-0.00061940,-0.00439453,0.00029937,-0.00249
 491,0.10756097,0.14268441,-0.01267810,0.00037670,0.00046596,0.00141923
 ,-0.00054664,-0.00455449,-0.00060495,0.00053350,0.00056466,0.00038008,
 0.00115491,0.00106983,0.00021173,-0.00173440,-0.00020525,-0.00099412,-
 0.00036273,-0.00110170,0.10536107,-0.16600355,0.55010556,-0.00188896,0
 .00036893,0.00096518,-0.00718457,0.00162286,0.00561279,0.00443748,-0.0
 0262262,-0.00080459,-0.00225221,-0.00306581,-0.00075066,0.00101529,0.0
 0499270,-0.00053557,0.00305523,0.00027172,0.00135628,-0.32439142,-0.05
 047003,-0.18261021,0.31891877,0.00435800,-0.00738249,-0.00035117,-0.00
 053416,-0.00020005,0.00079528,-0.00343130,0.00012900,-0.00135627,-0.00
 115769,0.00052764,-0.00058163,0.00180761,-0.00017779,0.00131423,0.0003
 0083,-0.00114263,0.00025504,-0.06758733,-0.03353442,-0.02260815,0.0532
 2562,0.04077124,0.00621434,-0.00241415,-0.01115848,-0.00147645,0.00071
 221,0.00812352,-0.00130863,-0.00005994,-0.00186035,-0.00083376,-0.0016
 8097,-0.00135653,-0.00028594,0.00315847,0.00026325,0.00169425,0.000007
 41,0.00137794,-0.13551510,-0.00359513,-0.13256755,0.16734456,0.0128212
 1,0.16245911,-0.00192599,-0.00035134,0.00103249,-0.00045344,0.00008974
 ,-0.00077158,-0.00002745,-0.00015533,-0.00006952,-0.00005026,-0.000178
 38,0.00018317,0.00006249,0.00009141,-0.00014759,0.00006465,0.00005179,
 -0.00007885,-0.05129289,-0.05745136,0.09160380,0.00668633,0.01642662,-
 0.03702480,0.04706787,-0.00066314,-0.00054463,-0.00022577,0.00014418,0
 .00024027,0.00006403,-0.00013817,0.00018610,-0.00012602,-0.00008806,0.
 00003846,-0.00034970,-0.00005299,0.00005728,0.00018161,0.00001946,-0.0
 0005684,0.00031491,-0.03846458,-0.09168851,0.18693175,-0.00089199,0.00
 144907,-0.00574337,0.04048838,0.09186835,0.00007452,-0.00071295,0.0009
 4726,-0.00062828,0.00017629,0.00000449,-0.00000254,0.00004361,-0.00007
 194,0.00010218,-0.00021781,0.00002587,-0.00001288,0.00024065,-0.000113
 38,-0.00009174,0.00012997,-0.00006826,0.04401352,0.17203916,-0.4090227
 2,0.01154141,0.01282853,-0.02314072,-0.05556248,-0.18509713,0.43082509
 ,0.00077085,-0.00228446,0.00053514,0.00030708,0.00056406,-0.00027873,-
 0.00016296,0.00011081,0.00016369,-0.01973701,-0.00056714,-0.01137758,-
 0.00021571,0.00343381,0.00044098,0.00202265,-0.00325856,0.00257802,0.0
 0637116,-0.00209612,0.00046464,-0.00162380,0.00207781,-0.00087597,-0.0
 0021786,0.00036527,-0.00003011,0.33011556,-0.00297031,0.00134094,-0.00
 118468,0.00128159,-0.00050121,-0.00070592,-0.00008445,-0.00002551,0.00
 019162,0.00294938,0.00744087,0.00053203,0.00178236,-0.00172313,0.00112
 646,-0.00596794,-0.01093350,-0.00006923,-0.00432387,-0.02266207,0.0014
 2183,0.00488730,-0.00069692,0.00334562,-0.00053659,-0.00234140,-0.0023
 8464,0.04005892,0.49395744,0.00016163,-0.00151818,0.00113242,0.0003915
 4,0.00020593,-0.00056979,0.00006414,0.00016543,0.00001882,-0.01407038,
 -0.00095496,0.00061431,0.00090484,0.00253618,-0.00028275,0.00711842,0.
 00022599,-0.00868391,0.00121258,0.00403504,0.00720556,-0.00115196,0.00
 140341,-0.00166296,-0.00035324,-0.00229388,-0.00033067,-0.24611450,-0.
 09805458,0.24898123,0.00002995,0.00041773,0.00031555,-0.00045222,-0.00
 008598,0.00014549,0.00021143,0.00001731,-0.00011284,-0.00077877,-0.002
 51629,0.00041318,-0.00079432,0.00013685,-0.00109566,0.00207122,0.00613
 564,-0.00063713,-0.00885513,0.00560174,-0.00086483,0.00007999,-0.00574
 215,-0.00058631,0.00001991,-0.00080855,0.00040479,-0.04175580,0.044087
 47,0.01223791,0.05194974,0.00431816,-0.00218155,0.00190691,-0.00162620
 ,0.00079238,0.00097170,0.00020966,0.00002975,-0.00021703,-0.00614025,-
 0.00221449,-0.00263411,0.00015890,0.00308848,-0.00017766,0.00903058,0.
 00011450,0.00463324,0.00274206,0.00244528,0.00219511,-0.00778806,0.000
 31714,-0.00630623,0.00127771,0.00040964,0.00293983,0.00217910,-0.40566
 309,0.04977525,-0.01026182,0.41152649,0.00004187,0.00061664,-0.0007077
 4,-0.00032459,0.00006456,0.00039860,-0.00004126,-0.00006943,-0.0000003
 6,0.00133021,-0.00091666,-0.00029066,-0.00105127,-0.00029917,-0.000333
 55,-0.00139413,0.00295213,-0.00041302,-0.00233664,-0.00385634,-0.01271
 190,0.00061673,-0.00416944,0.00112340,0.00090060,0.00636292,0.00094777
 ,0.01898283,0.01562352,-0.03138909,-0.01762957,-0.04911487,0.04898738,
 0.00017376,0.00027781,-0.00021356,-0.00017616,0.00001617,0.00017562,-0
 .00000756,-0.00006058,-0.00000943,0.00116555,0.00063688,-0.00224044,-0
 .00031577,-0.00036662,0.00014834,-0.00342781,-0.00149498,0.00459786,-0
 .00019657,0.00110935,-0.00025382,-0.00008393,-0.00028523,0.00020048,0.
 00014014,0.00004853,0.00004182,-0.27747092,-0.08016590,0.23884254,-0.0
 0170189,0.00429728,0.00103527,0.28207679,0.00040585,0.00000070,-0.0000
 6225,-0.00021943,0.00004524,0.00018001,-0.00004120,-0.00002168,-0.0000
 2281,0.00112458,-0.00040072,0.00091745,-0.00025705,-0.00003909,0.00006
 843,-0.00101517,0.00080840,-0.00218517,0.00120066,-0.00201363,-0.00151
 188,-0.00031555,0.00014413,0.00005711,0.00021455,0.00043874,0.00002610
 ,-0.03990101,-0.05822532,0.04493270,-0.03707175,-0.00843327,0.03276934
 ,0.07591407,0.06766040,0.00002607,0.00008318,-0.00025542,-0.00007048,0
 .00002600,0.00008143,-0.00005338,-0.00005205,0.00003683,-0.00093526,0.
 00027727,-0.00246925,-0.00016451,-0.00014779,0.00032432,0.00002283,-0.
 00111860,0.00361161,-0.00051056,-0.00036279,-0.00033497,0.00013188,-0.
 00000548,0.00040012,0.00010358,-0.00001229,0.00001302,0.23661405,0.079
 61233,-0.21408315,0.00733514,-0.00317460,-0.00574355,-0.24242817,-0.07
 515252,0.21840527,-0.02026552,0.00380660,0.02090497,-0.00222773,-0.003
 49233,-0.01489747,-0.00412283,-0.00076343,0.00089287,0.00127216,-0.002
 73960,-0.00026046,0.00013063,0.00342342,-0.00068959,0.00031351,0.00045
 433,-0.00006217,-0.00232398,-0.00038884,-0.00126434,0.00367109,0.00000
 152,0.00210163,0.00039169,-0.00021840,0.00025989,-0.00038299,-0.000945
 52,-0.00015093,0.00049670,0.00108833,0.00010897,0.00011559,0.00019065,
 0.00004158,0.04972187,0.00728201,0.00837132,-0.00628862,-0.00328499,-0
 .01401808,0.00821469,-0.00042316,-0.00027747,0.00108195,-0.00471399,0.
 00170822,0.00256778,0.00050461,-0.00277146,-0.00072239,0.00144192,0.00
 003648,0.00072020,0.00068975,0.00106890,0.00042169,-0.00120976,-0.0005
 9253,-0.00060063,-0.00019240,-0.00023611,-0.00010664,-0.00093293,0.000
 81117,-0.00049838,0.00003819,-0.00121064,0.00010700,0.00008194,-0.0000
 3009,0.00002937,-0.04724183,0.45703767,0.02185874,-0.00302694,-0.00672
 572,-0.00793443,0.00521862,-0.00546297,0.00039271,0.00070823,0.0002992
 4,0.00009958,0.00116661,0.00093880,-0.00049532,-0.00183771,-0.00017874
 ,-0.00033200,-0.00008967,-0.00041343,0.00118909,0.00032081,0.00133458,
 -0.00203754,-0.00015190,-0.00220135,0.00021110,-0.00004880,-0.00013864
 ,0.00025938,0.00023245,0.00038879,-0.00006762,-0.00032148,-0.00022615,
 -0.00010301,-0.00007297,-0.00005326,0.00814879,-0.09362344,0.54821554,
 -0.00118437,-0.00220073,0.00071018,0.00009357,0.00764472,-0.00096278,0
 .00040032,0.00001266,-0.00002773,0.00031943,0.00125182,-0.00050746,-0.
 00091910,-0.00030475,0.00106388,-0.00059571,-0.00013441,-0.00011734,0.
 00039223,-0.00019212,0.00002782,-0.00040706,0.00017052,-0.00006458,-0.
 00011951,0.00013604,-0.00003068,0.00034991,0.00010457,0.00010256,-0.00
 022000,0.00000298,-0.00002613,-0.00003337,-0.00005661,-0.00000759,-0.0
 2424945,0.03169300,-0.00038133,0.04065406,-0.00821857,-0.00194795,0.00
 557747,0.01292897,-0.00094854,-0.00946282,-0.00002777,-0.00001051,-0.0
 0047618,0.00693936,-0.00282232,-0.00353900,0.00001676,0.00401052,0.000
 32184,-0.00174472,0.00000598,-0.00113550,-0.00119798,-0.00109649,-0.00
 049331,0.00184939,0.00050269,0.00073281,0.00028808,0.00009711,0.000113
 34,0.00111669,-0.00109151,0.00070992,0.00007193,0.00153406,-0.00017985
 ,-0.00011547,0.00004417,-0.00004197,0.03176520,-0.35382259,0.02871447,
 -0.03784426,0.35282511,0.00146306,0.00167922,-0.00207137,-0.00224016,-
 0.00402354,0.00346463,-0.00002346,-0.00030176,0.00020632,-0.00128498,-
 0.00007892,-0.00033478,0.00098587,-0.00029737,-0.00011390,0.00044783,-
 0.00001096,0.00046757,0.00003317,0.00008605,-0.00010565,0.00008979,-0.
 00004003,0.00009398,-0.00007594,0.00003156,0.00001811,-0.00028808,0.00
 015187,-0.00029949,-0.00002123,-0.00018709,0.00010659,0.00005525,0.000
 00298,0.00002482,0.00603750,-0.02298488,-0.05617971,0.00076426,-0.0205
 6286,0.07292857,-0.00497708,0.00094612,0.00022215,0.00584529,-0.002864
 92,0.00409786,0.00015396,0.00003436,-0.00003259,-0.00012372,0.00011616
 ,-0.00030746,0.00006956,0.00005000,0.00020597,-0.00000685,-0.00012144,
 0.00017572,0.00022111,-0.00003029,-0.00034912,-0.00001171,0.00005877,0
 .00054499,-0.00035397,0.00011325,-0.00001551,0.00007662,0.00021492,-0.
 00011324,-0.00015370,-0.00021720,0.00009520,0.00000118,-0.00003307,0.0
 0000589,-0.00859865,0.01368624,-0.02144939,0.00013291,-0.00062416,-0.0
 0559656,0.00791054,0.00248603,-0.00054692,-0.00048957,-0.00388640,0.00
 085197,-0.00007877,-0.00018359,0.00025157,-0.00000767,0.00037620,0.000
 04166,-0.00032917,-0.00007688,-0.00001335,0.00014501,-0.00023023,-0.00
 005661,0.00001636,0.00020289,-0.00026025,0.00009490,-0.00030159,0.0001
 8198,-0.00021469,0.00003316,0.00015555,0.00000342,0.00017681,-0.000055
 69,0.00003510,-0.00008334,0.00013870,-0.00000964,-0.00001517,-0.000014
 05,-0.00000958,0.01123376,-0.05733760,0.06052740,0.00264441,-0.0058559
 6,0.04732318,-0.01180231,0.06463375,-0.00028149,-0.00021835,0.00131895
 ,-0.00028680,0.00040685,-0.00372236,-0.00017775,0.00006979,0.00005219,
 -0.00020052,-0.00016779,0.00013814,0.00006990,0.00012427,-0.00017366,0
 .00013479,0.00005099,0.00007492,-0.00017954,-0.00003039,-0.00007698,0.
 00025434,0.00001091,0.00003857,0.00006195,0.00000187,0.00007809,-0.000
 09234,-0.00004780,-0.00007375,0.00004778,0.00004671,0.00003248,0.00001
 650,0.00001220,0.00000726,-0.02158059,0.10951427,-0.48617077,-0.000027
 57,-0.00371535,-0.00701733,0.02224694,-0.10484534,0.49539081,0.0022497
 4,0.00268857,-0.00151946,-0.00355622,-0.00068682,0.00228337,-0.0001153
 1,-0.00001710,-0.00012397,-0.02824158,0.00418636,0.01610904,-0.0021437
 7,-0.00495023,-0.00018349,0.00369591,0.00129220,0.00524792,-0.00022725
 ,0.00109658,-0.00010645,0.00005216,-0.00064332,0.00006137,0.00008639,-
 0.00016001,0.00008080,-0.00292315,0.00058861,-0.00216821,0.00039455,-0
 .00131718,0.00050709,0.00045759,0.00023939,0.00015720,0.01018035,-0.00
 278666,0.00046133,-0.01709240,0.00541563,-0.00297672,-0.00068218,-0.00
 055178,-0.00018946,0.54384407,0.00454168,0.00068133,-0.00255741,-0.006
 37407,0.00084229,0.00429311,-0.00019456,0.00015257,0.00032658,0.000266
 68,0.00863741,0.00016634,-0.00288142,-0.00191330,0.00132114,0.00060274
 ,-0.00018106,0.00000812,0.00090150,0.00061142,0.00036104,-0.00127484,-
 0.00020337,-0.00052827,-0.00021600,-0.00002817,-0.00009643,-0.00022077
 ,0.00084861,-0.00016142,-0.00018940,-0.00095098,0.00006935,0.00003297,
 -0.00010497,-0.00000271,0.00284363,-0.03377554,0.00500352,-0.00050655,
 0.00581884,-0.00861027,0.00060282,-0.00279709,-0.00141243,-0.11002041,
 0.16754319,-0.00045112,-0.00164455,0.00140303,0.00132720,0.00053589,-0
 .00184132,-0.00010633,0.00025581,0.00001120,0.01785385,-0.00113874,0.0
 0176486,-0.00018432,0.00245873,-0.00029198,-0.00076633,-0.00122973,-0.
 00520360,0.00018839,-0.00031587,0.00033393,-0.00032178,0.00023441,-0.0
 0034877,0.00002353,-0.00004634,-0.00009577,0.00179716,-0.00026922,0.00
 165550,-0.00013594,0.00054501,-0.00041106,-0.00031804,-0.00010135,-0.0
 0011881,-0.00073226,0.00744761,0.00752752,-0.00052941,-0.00304365,-0.0
 1096877,0.00018933,-0.00227455,0.00021538,0.03870659,-0.18018742,0.340
 88128,-0.00335830,-0.00381091,0.00222612,0.00534833,-0.00001869,-0.003
 33504,0.00009940,-0.00009117,0.00016873,0.00557477,-0.00486161,-0.0098
 9578,0.00366570,0.00734636,0.00056622,-0.00914913,-0.00145551,-0.00349
 706,0.00019468,-0.00152437,0.00020953,0.00004204,0.00091400,-0.0001282
 8,-0.00005124,0.00015219,-0.00012936,0.00415141,-0.00088071,0.00286325
 ,-0.00053134,0.00193621,-0.00077082,-0.00064856,-0.00037101,-0.0002431
 0,-0.00363577,0.00866116,0.00052215,0.00083922,-0.01457046,0.00166308,
 0.00033403,-0.00019612,0.00023502,-0.28855642,-0.00698933,0.10431141,0
 .30960190,-0.00073937,0.00062775,0.00031402,0.00014077,-0.00161350,-0.
 00020880,0.00005999,-0.00007692,-0.00014175,-0.00612309,-0.01351244,0.
 00075576,0.00688975,-0.00041549,-0.00477953,-0.00003028,0.00047549,0.0
 0198160,-0.00044923,-0.00001694,-0.00014859,0.00055177,-0.00009728,0.0
 0019982,0.00010462,-0.00004850,0.00005749,-0.00061651,-0.00038352,-0.0
 0040579,0.00020196,0.00021857,0.00001870,0.00007377,0.00009125,0.00004
 234,0.00280169,-0.00146384,-0.00099664,-0.00817615,0.00138551,0.002823
 87,-0.00015974,0.00030064,0.00024681,-0.03362551,-0.03577378,0.0330549
 7,0.01815867,0.04916438,0.00106092,0.00218378,-0.00161018,-0.00226184,
 -0.00010102,0.00216868,0.00004125,-0.00016640,-0.00006381,-0.00681907,
 -0.00163062,-0.01261203,0.00056187,-0.00372188,-0.00116771,0.00053763,
 0.00244867,0.00832749,-0.00012043,0.00050406,-0.00035301,0.00023765,-0
 .00041085,0.00036146,-0.00005050,0.00005833,0.00011408,-0.00265237,0.0
 0050839,-0.00252601,0.00023771,-0.00088187,0.00061359,0.00042808,0.000
 13097,0.00013513,0.00101019,-0.00387935,-0.00099288,-0.00010196,0.0055
 8414,0.00040090,0.00022383,0.00031402,-0.00016136,0.14826923,0.0255965
 9,-0.10989685,-0.10790638,-0.02573875,0.10757297,0.00017992,-0.0003354
 2,0.00003600,-0.00015168,0.00021871,0.00006763,-0.00001538,0.00006553,
 0.00003156,-0.00000188,-0.00073831,0.00280768,0.00004047,0.00023413,-0
 .00017047,-0.00016640,-0.00026224,-0.00042756,0.00009860,-0.00009949,0
 .00004804,-0.00011473,0.00003987,-0.00006181,-0.00002687,0.00001859,-0
 .00001535,0.00032497,-0.00007982,0.00022303,-0.00001033,0.00010973,-0.
 00004435,-0.00006806,-0.00000792,-0.00002517,-0.00048667,-0.00329311,-
 0.00034223,0.00163933,0.00395136,0.00096732,0.00016264,0.00017415,-0.0
 0005118,-0.21742249,0.11907533,-0.16085195,-0.02392071,0.02093687,-0.0
 3269580,0.23993928,-0.00033651,0.00017431,-0.00017146,0.00015464,-0.00
 013772,0.00020215,0.00011195,-0.00010956,-0.00000230,-0.00145011,-0.00
 040714,0.00035165,0.00049805,-0.00008707,0.00012593,0.00029209,0.00016
 305,0.00020750,-0.00012638,-0.00002966,-0.00008218,0.00016996,0.000004
 60,0.00010872,0.00001531,0.00000361,0.00001719,-0.00020578,-0.00009616
 ,-0.00013775,0.00005045,0.00003903,0.00003124,0.00001518,0.00004979,0.
 00000990,-0.00181920,-0.00349781,-0.00172255,0.00575485,0.00137190,0.0
 0499894,0.00003049,0.00038170,-0.00004721,0.13925166,-0.10940738,0.145
 71898,-0.00239870,0.00113863,-0.00079821,-0.14000797,0.11044588,-0.000
 05593,0.00010647,-0.00019433,-0.00009240,0.00003346,0.00014983,0.00005
 342,-0.00008307,0.00003928,0.00094517,-0.00006621,-0.00228550,0.000058
 93,0.00000681,0.00036361,0.00003188,0.00019002,0.00018841,-0.00006107,
 0.00000117,-0.00004586,0.00006169,0.00001190,0.00005536,0.00001427,-0.
 00000368,0.00000833,-0.00012622,-0.00003006,-0.00009506,0.00001359,0.0
 0000119,0.00001727,0.00002469,0.00001167,0.00001859,0.00013141,-0.0014
 0023,0.00003915,0.00011586,0.00089651,-0.00062050,-0.00014400,-0.00020
 041,0.00004941,-0.20461619,0.15641055,-0.22461578,0.01314031,-0.007075
 53,0.00968954,0.19050459,-0.14881056,0.21723823\\0.00003509,-0.0000272
 1,-0.00003192,-0.00000680,-0.00000469,-0.00000429,-0.00003170,0.000031
 49,0.00001859,0.00002108,-0.00000224,-0.00004131,-0.00000823,0.0000003
 1,0.00001428,-0.00001558,-0.00000854,0.00002526,-0.00001894,-0.0000048
 5,0.00003846,0.00000504,0.00002853,0.00003073,0.00000669,-0.00001076,-
 0.00003355,0.00003187,-0.00002483,-0.00003548,-0.00002885,0.00001178,-
 0.00001605,-0.00001906,0.00001759,0.00002324,0.00004818,0.00000394,0.0
 0001406,0.00000303,-0.00002286,0.00001316,-0.00002472,0.00001079,-0.00
 002054,-0.00000340,0.00002207,-0.00003348,-0.00001234,-0.00001933,0.00
 001451,0.00001862,-0.00000119,0.00002433\\\@
 The archive entry for this job was punched.


 Everywhere is walking distance if you have the time.
                                    -- Steven Wright
 Job cpu time:       0 days  0 hours  4 minutes 46.4 seconds.
 Elapsed time:       0 days  0 hours  4 minutes 46.2 seconds.
 File lengths (MBytes):  RWF=     48 Int=      0 D2E=      0 Chk=      3 Scr=      1
 Normal termination of Gaussian 16 at Fri Jun 18 04:12:43 2021.

real	13m49.986s
user	13m39.478s
sys	0m9.999s
